Job second_attack_ts_search_0 started on c12-16 at Thu Jul 24 19:56:38 2025
jobid: c12-16-0-6882e452

  +------------------------------------------------------------------------+
  |  Jaguar version 12.7, release 129                                      |
  |                                                                        |
  |  Copyright Schrodinger, Inc.                                           |
  |  All Rights Reserved.                                                  |
  |                                                                        |
  |  The following have contributed to Jaguar (listed alphabetically):     |
  |  Ty Balduf, Mike Beachy, Chandler Bennett, Art Bochevarov,             |
  |  Dale Braden, Yixiang Cao, Alan Chien, Chris Cortis,                   |
  |  Rich Friesner, Jim Furness, Bill Goddard, Hod Greeley,                |
  |  Tom Hughes, Leif Jacobson, Jean-Marc Langlois, Daniel Levine,         |
  |  Daniel Mainz, Rob Murphy, Dean Philipp, Tom Pollard,                  |
  |  Murco Ringnalda, Pablo Videla, Mark Watson, Haoyu Yu.                 |
  |                                                                        |
  |  Use of this program should be acknowledged in publications as:        |
  |                                                                        |
  |  Jaguar, version 12.7, Schrodinger, Inc., New York, NY, 2025.          |
  |                                                                        |
  |  Y. Cao, T. Balduf, M. D. Beachy, M. C. Bennett, A. D. Bochevarov,     |
  |  A. Chien, P. A. Dub, K. G. Dyall, J. W. Furness, M. D. Halls,         |
  |  T. F. Hughes, L. D. Jacobson, H. S. Kwak, D. S. Levine, D. T. Mainz,  |
  |  K. B. Moore, M. Svensson, P. E. Videla, M. A. Watson, R. A. Friesner, |
  |  "Quantum chemical package Jaguar: A survey of recent developments     |
  |  and unique features", J. Chem. Phys. 161, 052502 (2024).              |
  |  DOI: 10.1063/5.0213317                                                |
  +------------------------------------------------------------------------+
  
  start of program pre
  
  Job name: second_attack_ts_search_0
  Executables used: /projects/silimorphous/ohvidsten/software/schrodinger-2025-1/jaguar-v12.7/bin/Linux-x86_64
  Temporary files : /projects/silimorphous/ohvidsten/scratch/ohvidsten/second_attack_ts_search_0#c12-16-0-6882e452
  Basis file : using default basis file from /projects/silimorphous/ohvidsten/software/schrodinger-2025-1
  Maestro file (input):  second_attack_ts_search_0.mae
  Maestro file (output): second_attack_ts_search_0.01.mae
  
  Input file comments:
   entry_name: transition_state_guess_0
  
 Contents of input file: &gen and (if present) &atomic sections only
 ----------------Contents start----------------
&gen
no_mul_imag_freq=1
epsout=18.5
isolv=7
maxitg=300
isymm=0
basis=def2-svpd
maxit=200
igeopt=2
nhesref=-1
geoconv_mode=standard
itrvec=-6
babel=xyz
dftname=wb97x-d
ignore_displacement_criteria=1
nogas=2
&
 -----------------Contents end-----------------
 
  basis set:               def2-svpd                       
  net molecular charge:    0
  multiplicity:            1
  
  Using up to 128 threads per process
  
  number of basis functions....          311

 --------------------------------------
   Number of active coords =   5
 --------------------------------------
   1   Stretch   1   4
   2   Stretch  13  14
   3   Stretch   1  14
   4   Stretch   2  13
   5   Stretch   4  13
 --------------------------------------

  
 Input geometry:
                                   angstroms
  atom               x                 y                 z
  P1           -0.7519556893     -1.1492343694      1.8303058156 
  O1           -1.4422457421     -2.1758633021      0.8984366618 
  F1           -1.7460141571     -1.3920208459      3.1606462100 
  F2            0.5464007620     -0.6060536075      0.7160241519 
  O2           -1.0998561293      0.4055718003      2.0363423128 
  C1           -0.6486690689      1.5388974873      1.2775424603 
  C2           -1.4182918231      2.7453199806      1.7649318206 
  H1            0.4280595482      1.6681825699      1.4347722865 
  H2           -0.8260465662      1.3600621426      0.2103418966 
  H3           -2.4965964136      2.6182554723      1.6005123878 
  H4           -1.0817748326      3.6309661453      1.2085549816 
  H5           -1.2378134398      2.9172658296      2.8345683124 
  Li1           0.0115447499     -2.9435853787      0.3215077201 
  O3            0.3889549594     -2.1200132138      2.5110649776 
  C3            1.4783198150     -1.5959987693      3.2787070759 
  C4            2.4086573921     -2.7298241479      3.6407752550 
  H6            2.0035152297     -0.8316078981      2.6879325402 
  H7            1.0760851211     -1.1186824782      4.1854901819 
  H8            1.8805803303     -3.4962558856      4.2239095111 
  H9            2.8274772921     -3.1933711705      2.7369930272 
  H10           3.2375716609     -2.3399161595      4.2469848246 
   
  principal moments of inertia:
        amu*angstrom^2:               346.91036               719.51321               791.73437
                g*cm^2:          5.76058140E-38          1.19477964E-37          1.31470569E-37
   
  rotational constants:
               cm^(-1):      0.04859362      0.02342921      0.02129203
                   GHz:      1.45679997      0.70239018      0.63831889
   
  Molecular weight:     182.05 amu
   
  Stoichiometry: LiC4PH10O3F2
  Molecular Point Group: C1      
  Point Group used: C1 (symmetry turned off)
  

 --------------------------------------
   Number of active coords =   5
 --------------------------------------
   1   Stretch   1   4
   2   Stretch  13  14
   3   Stretch   1  14
   4   Stretch   2  13
   5   Stretch   4  13
 --------------------------------------

 
Number of optimization coordinates:    62
Number of independent coordinates:     62
Number of non-redundant coordinates:   57
Number of frozen coordinates:           0
Number of harmonic constraints:         0
 
Number of geometric degrees of freedom:    57
Maximum geometric degrees of freedom:      57
 " " " " " excluding dummy atoms:          57
 
  nuclear repulsion energy.......           805.559508408 hartrees
 
 Non-default options chosen:
   SCF calculation type: DFT(wb97x-d)                
   DFT=wB97X/HF(LR)+HF(SR)+xB97(SR)+cB97 (wB97X-D)
   Transition state optimization
   Geometry will be optimized in redundant internal coordinates
   Culot/Fletcher trust radius adjustment
      initial trust radius:  0.100
   P-RFO level-shifting used
   Solvation energy will be computed via PCM
   Solvated optimization will not be preceded by gas phase optimization
   Input geometry is assumed to be the optimized gas-phase geometry
   Molecular symmetry not used
   Maximum number of SCF iterations:  200
   Maximum number of geometry steps: 300
   Scaling standard convergence criteria by a factor of   1.00
   Mixed Murtagh-Sargent/Powell Hessian-updating used
   Geometry DIIS turned off
   Refine initial Hessian along   5 input active coordinates
   Hessian refinement will use Murtagh-Sargent updates
   Solvent: water                                                           
  
 Temporary integer options set:
     73=  2
  
  atom       vdw   vdw2    cov     mass  grid  daf  charge   basis
  P1        2.147  2.074  1.060   30.974    Y    Y      Y    def2-svpd
  O1        1.702  1.600  0.730   15.995    Y    Y      Y    def2-svpd
  F1        1.736  1.682  0.720   18.998    Y    Y      Y    def2-svpd
  F2        1.736  1.682  0.720   18.998    Y    Y      Y    def2-svpd
  O2        1.702  1.600  0.730   15.995    Y    Y      Y    def2-svpd
  C1        1.949  1.900  0.770   12.000    Y    Y      Y    def2-svpd
  C2        1.949  1.900  0.770   12.000    Y    Y      Y    def2-svpd
  H1        1.597  1.150  0.320    1.008    Y    Y      Y    def2-svpd
  H2        1.597  1.150  0.320    1.008    Y    Y      Y    def2-svpd
  H3        1.597  1.150  0.320    1.008    Y    Y      Y    def2-svpd
  H4        1.597  1.150  0.320    1.008    Y    Y      Y    def2-svpd
  H5        1.597  1.150  0.320    1.008    Y    Y      Y    def2-svpd
  Li1       1.226  1.226  1.230    7.016    Y    Y      Y    def2-svpd
  O3        1.702  1.600  0.730   15.995    Y    Y      Y    def2-svpd
  C3        1.949  1.900  0.770   12.000    Y    Y      Y    def2-svpd
  C4        1.949  1.900  0.770   12.000    Y    Y      Y    def2-svpd
  H6        1.597  1.150  0.320    1.008    Y    Y      Y    def2-svpd
  H7        1.597  1.150  0.320    1.008    Y    Y      Y    def2-svpd
  H8        1.597  1.150  0.320    1.008    Y    Y      Y    def2-svpd
  H9        1.597  1.150  0.320    1.008    Y    Y      Y    def2-svpd
  H10       1.597  1.150  0.320    1.008    Y    Y      Y    def2-svpd
  
 
  end of program pre
   
 Time(pre)  user:      59.679  user+sys:      59.679  wallclock:       1.284
  
  start of program onee
  
  smallest eigenvalue of S:    1.198E-05
  number of canonical orbitals.....          298
  end of program onee
   
 Time(onee)  user:      34.756  user+sys:      34.756  wallclock:       0.668
  
  start of program hfig
  
  initial wavefunction generated automatically from atomic wavefunctions
 
  Irreducible     Total no   No of occupied orbitals 
  representation  orbitals   Shell_1  Shell_2    ...
  No Symm          298         47
  ------------------------
  Orbital occupation/shell    1.000
 
  end of program hfig
   
 Time(hfig)  user:      87.302  user+sys:      87.302  wallclock:       5.024
  
  start of program probe
  
  end of program probe
   
 Time(probe)  user:      33.368  user+sys:      33.368  wallclock:       0.639
  
  start of program grid
  
   grid     grid set  grid #  grid sym
  ------    --------  ------  --------
  coarse        0        0        1
  medium        2        1        1
  fine          0        0        1
  ultrafine     4        2        1
  charge       -1        3        1
  gradient      4        2        1
  density       0        0        1
  DFT-fine    -11        4        1
  DFT-med.    -10        5        1
  DFT-grad    -12        6        1
  DFT-der2      0        0        1
  DFT-cphf      0        0        1
  LMP2-enrg     4        2        1
  LMP2-grad     2        1        1
  DFT-cphf2     0        0        1
  PBF-dens      0        0        1
  plotting      0        0        1
  Rel-grad    -17        0        1
  
  number of gridpoints: 
     atom           P1          O1          F1          F2          O2          C1          C2
  grid # 1        1223         464        1324        1191         449         354         343
  grid # 2        1223        1318        1324        1191        1283         990         948
  grid # 3           6         232         304         129          73           6           6
  grid # 4        4324        4324        4324        4324        4324        4324        4324
  grid # 5        1192        1192        1192        1192        1192        1192        1192
  grid # 6       24882       13460       13460       13460       13460       13460       13460
   
  number of gridpoints: 
     atom           H1          H2          H3          H4          H5         Li1          O3
  grid # 1         219         219         226         225         226        1492         431
  grid # 2         731         734         741         740         740        1492        1246
  grid # 3         262         287         366         368         363         494          45
  grid # 4        4324        4324        4324        4324        4324        4324        4324
  grid # 5        1192        1192        1192        1192        1192        1192        1192
  grid # 6       13460       13460       13460       13460       13460       13460       13460
   
  number of gridpoints: 
     atom           C3          C4          H6          H7          H8          H9         H10
  grid # 1         354         344         218         220         226         223         225
  grid # 2         990         949         729         734         740         733         740
  grid # 3           6           6         230         298         357         305         368
  grid # 4        4324        4324        4324        4324        4324        4324        4324
  grid # 5        1192        1192        1192        1192        1192        1192        1192
  grid # 6       13460       13460       13460       13460       13460       13460       13460
   
  number of gridpoints: 
     atom        total
  grid # 1       10196
  grid # 2       20316
  grid # 3        4511
  grid # 4       90804
  grid # 5       25032
  grid # 6      294082
   
  end of program grid
   
 Time(grid)  user:     111.186  user+sys:     111.186  wallclock:       1.956
  
  start of program rwr
  
  end of program rwr
   
 Time(rwr)  user:    3195.524  user+sys:    3195.524  wallclock:      41.770
  
  start of program scf
  
  
  Total number of PCM cavity points =        1339
  
 number of electrons..........         94
 number of alpha electrons....         47
 number of beta electrons.....         47
 number of orbitals, total....        298
 number of doubly-occ'd orbs..         47
 number of open shell orbs....          0
 number of occupied orbitals..         47
 number of virtual orbitals...        251
 number of hamiltonians.......          1
 number of shells.............          1
 SCF type: DFT=wB97X/HF(LR)+HF(SR)+xB97(SR)+cB97 (wB97X-D)
 Energy computed using pseudospectral method.
 Convergence Criterion:
    Energy (econv):       1.00E-05
    RMS density (dconv):  5.00E-06
  
       i  u  d  i  g                   
       t  p  i  c  r                                 RMS    maximum
       e  d  i  u  i                       energy  density   DIIS  
       r  t  s  t  d       total energy    change  change    error 
  
etot    1  N  N  5  M    -930.30235346089           5.2E-03  8.4E-02
etot    2  Y  Y  6  M    -931.85095816403  1.5E+00  3.5E-03  3.0E-02
etot    3  Y  Y  6  M    -932.08184870989  2.3E-01  1.1E-03  1.9E-02
etot    4  N  Y  2  U    -932.14023792233  5.8E-02  1.3E-03  6.8E-03
etot    5  Y  Y  6  M    -932.15025711492  1.0E-02  8.4E-04  3.4E-03
etot    6  N  Y  2  U    -932.15129258000  1.0E-03  3.6E-04  7.8E-04
etot    7  Y  Y  6  M    -932.15147521442  1.8E-04  7.2E-05  3.2E-04
etot    8  Y  Y  6  M    -932.15150437850  2.9E-05  1.6E-05  5.8E-05
etot    9  N  Y  2  U    -932.15151830534  1.4E-05  6.8E-06  2.5E-05
etot   10  N  Y  2  U    -932.15151864816  3.4E-07  2.4E-06  7.0E-06
etot   11  N  N  2  U    -932.15151870677  5.9E-08  0.0E+00  0.0E+00
 
 
  Computing the D energy correction and its gradients...
  
  
 Energy components, in hartrees:
   (A)  Nuclear repulsion............     805.55950840810
   (E)  Total one-electron terms.....   -2888.83652866537
   (F)    Electron-nuclear...........   -3814.32210278056
   (H)    Kinetic....................     925.48557411519
   (I)  Total two-electron terms.....    1151.12550155050
   (J)    Coulomb....................    1248.40354714208
   (K)    Exchange+Correlation.......     -97.27804559158
   (L)  Electronic energy............   -1737.71102711487  (E+I)
   (M)  -V/T.........................       2.00720264559  (-(A+F+I)/H)
   (N0) D correction.................      -0.01341379352
   (N)  Total energy.................    -932.16493250029  (A+L+N0)
   (O)  Gas phase energy.............    -932.16493250029
  
 SCFE: SCF energy: DFT(wb97x-d)      -932.16493250029 hartrees   iterations:  11
  
 
 HOMO energy:    -0.36268
 LUMO energy:     0.00675
 
  Orbital energies (hartrees): 
   -77.40776   -24.76966   -24.74955   -19.28513   -19.28300   -19.20975
   -10.35828   -10.35015   -10.30356   -10.28885    -6.82390    -4.97885
    -4.97785    -4.97656    -2.11319    -1.23901    -1.20990    -1.12759
    -1.12194    -1.03564    -0.86261    -0.85462    -0.73887    -0.72157
    -0.66714    -0.62653    -0.59409    -0.57304    -0.56933    -0.54151
    -0.53034    -0.52674    -0.49531    -0.49072    -0.48146    -0.47044
    -0.46210    -0.45541    -0.44776    -0.44472    -0.43968    -0.42360
    -0.40686    -0.39679    -0.38268    -0.37243    -0.36268     0.00675
     0.05506     0.05675     0.07308     0.09460     0.11160     0.11701
     0.12708     0.14259     0.15087
 
  
 solvation phase SCF calculation with PCM ...
  
 number of electrons..........         94
 number of alpha electrons....         47
 number of beta electrons.....         47
 number of orbitals, total....        298
 number of doubly-occ'd orbs..         47
 number of open shell orbs....          0
 number of occupied orbitals..         47
 number of virtual orbitals...        251
 number of hamiltonians.......          1
 number of shells.............          1
 SCF type: DFT=wB97X/HF(LR)+HF(SR)+xB97(SR)+cB97 (wB97X-D)
 Energy computed using pseudospectral method.
 Convergence Criterion:
    Energy (econv):       1.00E-05
    RMS density (dconv):  5.00E-06
  
       i  u  d  i  g                   
       t  p  i  c  r                                 RMS    maximum
       e  d  i  u  i                       energy  density   DIIS  
       r  t  s  t  d       total energy    change  change    error 
  
etot    1  N  N  5  M    -932.18889187675           7.0E-04  2.7E-03
etot    2  Y  Y  6  M    -932.19144533853  2.6E-03  9.5E-05  1.1E-03
etot    3  N  Y  2  U    -932.19172442652  2.8E-04  2.1E-04  2.7E-03
etot    4  Y  Y  6  M    -932.19189578514  1.7E-04  3.2E-04  1.8E-03
etot    5  Y  Y  6  M    -932.19197208925  7.6E-05  3.7E-04  6.1E-04
etot    6  N  Y  2  U    -932.19201379169  4.2E-05  8.6E-05  6.9E-04
etot    7  Y  Y  6  M    -932.19202967911  1.6E-05  6.2E-05  3.5E-04
etot    8  Y  Y  6  M    -932.19203733197  7.7E-06  2.5E-05  1.2E-04
etot    9  N  Y  2  U    -932.19202888629 -8.4E-06  1.2E-05  6.0E-05
etot   10  N  Y  2  U    -932.19202878304 -1.0E-07  1.4E-06  2.3E-05
etot   11  N  N  2  U    -932.19202880302  2.0E-08  0.0E+00  0.0E+00
 
 
  Computing the D energy correction and its gradients...
  
  
 Energy components, in hartrees:
   (A)  Nuclear repulsion............     805.55950840810
   (E)  Total one-electron terms.....   -2889.16864357473
   (F)    Electron-nuclear...........   -3814.66704204876
   (H)    Kinetic....................     925.49839847403
   (I)  Total two-electron terms.....    1151.46105317924
   (J)    Coulomb....................    1248.75058583336
   (K)    Exchange+Correlation.......     -97.28953265412
   (L)  Electronic energy............   -1737.70759039549  (E+I)
   (M)  -V/T.........................       2.00718497571  (-(A+F+I)/H)
   (F1) PCM free energy..............      -0.03053302211
   (N0) D correction.................      -0.01341379352
   (N)  Total energy.................    -932.19202880302  (A+L+F1)
  
 Gas phase energy......................    -932.16493250029
 Solution phase energy.................    -932.19202880302
 PCM solvation energy (electrostatic)..      -0.02709630273 ( -17.00 kcal/mol)
 PCM van der Waals area (A**2).........             201.514
 PCM SASA (A**2).......................             362.938
  
  WARNING: 
  The solvation energy is computed from 
  energies at the solution phase geometry and
  at the gas phase geometry.  Because the 
  nogas=2 flag was used, the gas phase geometry
  was not optimized in this calculation; 
  instead the input geometry was assumed to be 
  the correct optimized gas phase geometry. 
  
  
 SCFE: SCF energy: DFT(wb97x-d)      -932.19202880302 hartrees   iterations:  11
  
 
 HOMO energy:    -0.38232
 LUMO energy:     0.03311
 
  Orbital energies (hartrees): 
   -77.42762   -24.78602   -24.78116   -19.30250   -19.29184   -19.23311
   -10.35603   -10.35603   -10.29342   -10.29176    -6.84386    -4.99907
    -4.99756    -4.99652    -2.10184    -1.26483    -1.23109    -1.13996
    -1.13711    -1.05841    -0.86582    -0.85515    -0.74735    -0.72273
    -0.67495    -0.63397    -0.61345    -0.58398    -0.57446    -0.55666
    -0.53981    -0.53738    -0.51084    -0.49775    -0.48947    -0.47781
    -0.47317    -0.46508    -0.46378    -0.45956    -0.44727    -0.42948
    -0.42292    -0.41250    -0.40023    -0.38671    -0.38232     0.03311
     0.06661     0.06778     0.07321     0.10506     0.11402     0.12176
     0.13164     0.13815     0.14506
 
  end of program scf
   
 Time(scf)  user:    3711.367  user+sys:    3711.367  wallclock:      36.992
  
  start of program der1a
  
  end of program der1a
   
 Time(der1a)  user:      28.111  user+sys:      28.111  wallclock:       0.557
  
  start of program rwr
  
  end of program rwr
   
 Time(rwr)  user:    2056.065  user+sys:    2056.065  wallclock:      27.168
  
  start of program der1b
  
   
  forces (hartrees/bohr) : total     
   
 atom  label           x              y              z
 ---- --------   -------------  -------------  -------------
    1 P1         -4.643479E-03  -1.803701E-02  -2.728580E-03
    2 O1         -1.248310E-03   3.397930E-02  -1.020227E-03
    3 F1          2.378997E-05   1.938428E-04   7.511050E-06
    4 F2         -1.353862E-02  -1.775185E-02  -1.482146E-04
    5 O2         -1.216683E-04   1.516067E-04  -3.294166E-05
    6 C1          1.181243E-04   2.864537E-04  -7.787217E-05
    7 C2          1.101934E-05  -2.512559E-04   1.326492E-04
    8 H1         -7.980311E-05  -1.680347E-05   5.425257E-05
    9 H2         -4.103754E-05  -4.131213E-05   8.309420E-05
   10 H3         -1.662893E-05   2.324120E-06  -3.327265E-06
   11 H4          3.115386E-05  -2.012661E-05  -7.062369E-05
   12 H5         -5.170175E-05   3.407488E-05   3.374648E-05
   13 Li1         1.427002E-02  -8.536762E-03  -6.507064E-03
   14 O3          9.320534E-03   1.099959E-02   5.625301E-03
   15 C3         -1.152649E-05   6.048119E-05   1.414301E-04
   16 C4          3.074945E-05  -1.038395E-04  -7.463195E-05
   17 H6          3.546063E-05  -1.828295E-05  -1.058459E-05
   18 H7         -3.287526E-05  -4.678018E-05  -4.085793E-05
   19 H8          2.972265E-05   3.908112E-05  -3.566124E-05
   20 H9         -3.534585E-06   1.761626E-05   4.340221E-05
   21 H10         5.156135E-05  -6.635237E-06   1.683827E-05
 -------------   -------------  -------------  -------------
     total        4.132944E-03   9.337211E-04  -4.612361E-03
   
  end of program der1b
   
 Time(der1b)  user:     648.182  user+sys:     648.182  wallclock:       6.710
  
  start of program geopt
  
 ----------------------------------------------------------------------------
  Geometry optimization step  1
  Total energy:      -932.19202880302 hartrees
 ----------------------------------------------------------------------------
  
  Hessian eigenvalues: 
    0.00000E+00    0.00000E+00    0.00000E+00    0.00000E+00    0.00000E+00
    1.66241E-02    1.73575E-02    2.74794E-02    3.78339E-02    3.82896E-02
    5.29971E-02    8.05411E-02    8.78084E-02    8.81947E-02    1.10283E-01
    1.10363E-01    1.17461E-01    1.33665E-01    1.36132E-01    1.36492E-01
    1.79768E-01    1.85018E-01    1.86603E-01    1.89883E-01    2.43479E-01
    2.43829E-01    2.44001E-01    2.55602E-01    2.56413E-01    2.57188E-01
    2.57971E-01    2.76284E-01    2.79083E-01    2.80757E-01    2.89849E-01
    3.17168E-01    3.23738E-01    3.29039E-01    3.29621E-01    3.30410E-01
    3.30588E-01    3.30771E-01    3.31342E-01    3.31397E-01    3.31613E-01
    3.31782E-01    3.31819E-01    3.31984E-01    3.33737E-01    3.34521E-01
    3.68602E-01    3.74155E-01    3.79560E-01    3.82354E-01    3.97483E-01
    3.97549E-01    4.39701E-01    5.98073E-01    6.04719E-01    7.54817E-01
    9.02328E-01    1.90522E+00
  
 Coordinates for initial Hessian refinement:
  
Adding active coordinate   1
Adding active coordinate   2
Adding active coordinate   3
Adding active coordinate   4
Adding active coordinate   5
  gradient maximum:        2.7549E-02 .  (  4.5000E-04 )
  gradient rms:            7.1436E-03 .  (  3.0000E-04 )
  
 Hessian refinement summary - units are hartrees, bohr, and radians:
  var coord   org geom  org grad   cur geom  cur grad  displace.   new geom
------ ----  ---------  --------  ---------  --------  ---------  ---------
    1    1    2.926848  0.016569   2.926848  0.016569  -0.000166   2.926682
    2    2    1.690497 -0.005059   1.690497 -0.005059  -0.000542   1.689955
    3    3    3.171647 -0.000457   3.171647 -0.000457   0.000000   3.171647
    4    4    3.392255  0.010568   3.392255  0.010568   0.049798   3.442053
    5    5    3.035884 -0.000370   3.035884 -0.000370   0.000000   3.035884
    6    6    2.249460 -0.005008   2.249460 -0.005008  -0.000000   2.249460
    7    7    3.007162 -0.001319   3.007162 -0.001319  -0.000000   3.007162
    8    8   -1.173450 -0.000583  -1.173450 -0.000583  -0.000000  -1.173450
    9    9    4.659277 -0.007963   4.659277 -0.007963  -0.000923   4.658354
   10   10    0.673444  0.006366   0.673444  0.006366   0.000165   0.673608
   11   11    3.109459 -0.000383   3.109459 -0.000383   0.000035   3.109494
   12   12    2.133367 -0.001306   2.133367 -0.001306   0.000000   2.133367
   13   13   -3.045443  0.001899  -3.045443  0.001899   0.000000  -3.045443
   14   14   -0.930523 -0.000049  -0.930523 -0.000049   0.000000  -0.930523
   15   15    1.688113 -0.001453   1.688113 -0.001453   0.000000   1.688113
   16   16    1.720811  0.015959   1.720811  0.015959  -0.003088   1.717723
   17   17    2.242289 -0.000776   2.242289 -0.000776  -0.000000   2.242289
   18   18   -1.496131 -0.002439  -1.496131 -0.002439   0.000000  -1.496131
   19   19    0.777652 -0.001307   0.777652 -0.001307   0.000377   0.778029
   20   20    1.738465 -0.027549   1.738465 -0.027549   0.000311   1.738777
   21   21    2.928345 -0.000563   2.928345 -0.000563   0.000000   2.928345
   22   22    3.292547 -0.012001   3.292547 -0.012001   0.000394   3.292941
   23   23    3.116579 -0.008775   3.116579 -0.008775  -0.001947   3.114632
   24   24   -2.330300 -0.008461  -2.330300 -0.008461  -0.001947  -2.332248
   25   25    4.592372  0.014224   4.592372  0.014224   0.001152   4.593525
   26   26    2.404078 -0.027422   2.404078 -0.027422  -0.000184   2.403893
   27   27    3.136890 -0.016940   3.136890 -0.016940  -0.000184   3.136705
   28   28    2.714751  0.001298   2.714751  0.001298   0.000000   2.714751
   29   29    1.874851  0.002286   1.874851  0.002286   0.000000   1.874851
   30   30   -1.069167 -0.000797  -1.069167 -0.000797  -0.000000  -1.069167
   31   31    1.902751  0.000314   1.902751  0.000314   0.000000   1.902751
   32   32    1.911980  0.000838   1.911980  0.000838   0.000000   1.911980
   33   33    2.856753 -0.000294   2.856753 -0.000294   0.000000   2.856753
   34   34    1.938305 -0.000412   1.938305 -0.000412  -0.000000   1.938305
   35   35    1.900847 -0.000038   1.900847 -0.000038  -0.000000   1.900847
   36   36    1.934001 -0.000167   1.934001 -0.000167   0.000000   1.934001
   37   37    2.070764  0.000281   2.070764  0.000281   0.000000   2.070764
   38   38    2.072127  0.000189   2.072127  0.000189  -0.000000   2.072127
   39   39    2.075191 -0.000089   2.075191 -0.000089   0.000000   2.075191
   40   40    2.076265  0.000098   2.076265  0.000098   0.000000   2.076265
   41   41    2.075484 -0.000194   2.075484 -0.000194  -0.000000   2.075484
   42   42    2.070483 -0.000638   2.070483 -0.000638   0.000000   2.070483
   43   43   -2.085545 -0.000169  -2.085545 -0.000169   0.000000  -2.085545
   44   44    2.116730 -0.000044   2.116730 -0.000044  -0.000000   2.116730
   45   45    4.477842 -0.006753   4.477842 -0.006753  -0.000122   4.477720
   46   46    2.706060  0.000218   2.706060  0.000218  -0.000000   2.706060
   47   47    1.898978  0.000904   1.898978  0.000904  -0.000000   1.898978
   48   48   -1.036220  0.000967  -1.036220  0.000967   0.000000  -1.036220
   49   49    1.906799  0.000207   1.906799  0.000207   0.000000   1.906799
   50   50    1.898921 -0.000077   1.898921 -0.000077   0.000000   1.898921
   51   51    2.854789 -0.000028   2.854789 -0.000028   0.000000   2.854789
   52   52    1.933592  0.000139   1.933592  0.000139   0.000000   1.933592
   53   53    1.932922 -0.000013   1.932922 -0.000013  -0.000000   1.932922
   54   54    1.907712 -0.000109   1.907712 -0.000109   0.000000   1.907712
   55   55    2.077958  0.000135   2.077958  0.000135  -0.000000   2.077958
   56   56    2.080312 -0.000098   2.080312 -0.000098   0.000000   2.080312
   57   57    2.075543 -0.000080   2.075543 -0.000080   0.000000   2.075543
   58   58    2.076213  0.000151   2.076213  0.000151   0.000000   2.076213
   59   59    2.075791  0.000007   2.075791  0.000007  -0.000000   2.075791
   60   60    2.062452 -0.000076   2.062452 -0.000076   0.000000   2.062452
   61   61    2.113247  0.000545   2.113247  0.000545  -0.000000   2.113247
   62   62   -2.086111  0.000067  -2.086111  0.000067   0.000000  -2.086111
  
  displacement maximum:    4.9798E-02 .  (  1.8000E-03 )
  displacement rms:        6.3500E-03 .  (  1.2000E-03 )
  
  predicted energy change:   7.7409E-04
  step size:     0.05000
  new geometry: 
                                   angstroms
  atom               x                 y                 z
  P1           -0.7532319458     -1.1495255993      1.8315631113 
  O1           -1.4442692510     -2.1760828387      0.9003150239 
  F1           -1.7482818880     -1.3898784236      3.1616041662 
  F2            0.5656245745     -0.6070704543      0.6983983496 
  O2           -1.1007220513      0.4053666893      2.0376421666 
  C1           -0.6498250970      1.5385228654      1.2784168314 
  C2           -1.4189171052      2.7451396332      1.7661629367 
  H1            0.4270281777      1.6676346886      1.4349336920 
  H2           -0.8279259611      1.3595937340      0.2113524715 
  H3           -2.4973506168      2.6182478202      1.6024572312 
  H4           -1.0826031033      3.6306604922      1.2094640043 
  H5           -1.2377150034      2.9171790030      2.8356620250 
  Li1           0.0097178353     -2.9434342317      0.3227586183 
  O3            0.3879403952     -2.1201136836      2.5122004992 
  C3            1.4776842139     -1.5958599016      3.2791409789 
  C4            2.4081165685     -2.7295976686      3.6412399598 
  H6            2.0026587969     -0.8317364276      2.6878244957 
  H7            1.0758887391     -1.1181579321      4.1859157122 
  H8            1.8802567587     -3.4957648767      4.2249182812 
  H9            2.8264994418     -3.1935301862      2.7374531174 
  H10           3.2373286561     -2.3394987612      4.2469191677 
   
  nuclear repulsion energy.......           804.350358839 hartrees
 -------------------------------------------------
   end of geometry optimization iteration  1
 -------------------------------------------------
   
  end of program geopt
   
 Time(geopt)  user:      28.840  user+sys:      28.840  wallclock:       0.570
  
  start of program onee
  
  smallest eigenvalue of S:    1.201E-05
  number of canonical orbitals.....          298
  end of program onee
   
 Time(onee)  user:      44.954  user+sys:      44.954  wallclock:       0.768
  
  start of program probe
  
  end of program probe
   
 Time(probe)  user:      35.185  user+sys:      35.185  wallclock:       0.556
  
  start of program grid
  
  end of program grid
   
 Time(grid)  user:     120.668  user+sys:     120.668  wallclock:       1.997
  
  start of program rwr
  
  end of program rwr
   
 Time(rwr)  user:    3836.785  user+sys:    3836.785  wallclock:      48.316
  
  start of program scf
  
  
  Total number of PCM cavity points =        1340
  
 Energy computed using pseudospectral method.
 Convergence Criterion:
    Energy (econv):       1.00E-05
    RMS density (dconv):  5.00E-06
  
       i  u  d  i  g                   
       t  p  i  c  r                                 RMS    maximum
       e  d  i  u  i                       energy  density   DIIS  
       r  t  s  t  d       total energy    change  change    error 
  
etot    1  N  N  2  U    -932.17779902073           1.1E-04  9.8E-04
etot    2  Y  Y  6  M    -932.17794806646  1.5E-04  1.7E-05  2.6E-04
etot    3  N  Y  2  U    -932.17795380781  5.7E-06  5.9E-06  1.2E-04
etot    4  N  Y  2  U    -932.17795711844  3.3E-06  4.2E-06  3.3E-05
etot    5  N  N  2  U    -932.17795736561  2.5E-07  0.0E+00  0.0E+00
 
 
  Computing the D energy correction and its gradients...
  
  
 Energy components, in hartrees:
   (A)  Nuclear repulsion............     804.35035883906
   (E)  Total one-electron terms.....   -2886.74015540903
   (F)    Electron-nuclear...........   -3812.21159814494
   (H)    Kinetic....................     925.47144273592
   (I)  Total two-electron terms.....    1150.24207087458
   (J)    Coulomb....................    1247.52266169094
   (K)    Exchange+Correlation.......     -97.28059081636
   (L)  Electronic energy............   -1736.49808453445  (E+I)
   (M)  -V/T.........................       2.00721392649  (-(A+F+I)/H)
   (F1) PCM free energy..............      -0.03023167022
   (N0) D correction.................      -0.01342337088
   (N)  Total energy.................    -932.19138073649  (A+L+F1)
  
 Gas phase energy......................    -932.16493250029
 Solution phase energy.................    -932.19138073649
 PCM solvation energy (electrostatic)..      -0.02644823619 ( -16.60 kcal/mol)
 PCM van der Waals area (A**2).........             201.687
 PCM SASA (A**2).......................             363.162
  
  WARNING: 
  The solvation energy is computed from 
  energies at the solution phase geometry and
  at the gas phase geometry.  Because the 
  nogas=2 flag was used, the gas phase geometry
  was not optimized in this calculation; 
  instead the input geometry was assumed to be 
  the correct optimized gas phase geometry. 
  
  
 SCFE: SCF energy: DFT(wb97x-d)      -932.19138073649 hartrees   iterations:   5
  
 
 HOMO energy:    -0.38303
 LUMO energy:     0.03305
 
  Orbital energies (hartrees): 
   -77.42867   -24.78652   -24.77772   -19.30440   -19.29326   -19.23448
   -10.35636   -10.35631   -10.29358   -10.29198    -6.84494    -5.00013
    -4.99863    -4.99758    -2.10185    -1.26412    -1.22516    -1.14121
    -1.13802    -1.05947    -0.86625    -0.85548    -0.74765    -0.72315
    -0.67515    -0.63404    -0.61192    -0.58401    -0.57397    -0.55645
    -0.53842    -0.53710    -0.51067    -0.49580    -0.48896    -0.47757
    -0.47268    -0.46546    -0.46351    -0.45925    -0.44664    -0.43011
    -0.42381    -0.41323    -0.40108    -0.38752    -0.38303     0.03305
     0.06664     0.06768     0.07288     0.10369     0.11388     0.12138
     0.13110     0.13801     0.14370
 
  end of program scf
   
 Time(scf)  user:    1158.712  user+sys:    1158.712  wallclock:      11.391
  
  start of program der1a
  
  end of program der1a
   
 Time(der1a)  user:      27.952  user+sys:      27.952  wallclock:       0.424
  
  start of program rwr
  
  end of program rwr
   
 Time(rwr)  user:    1973.738  user+sys:    1973.738  wallclock:      24.575
  
  start of program der1b
  
   
  forces (hartrees/bohr) : total     
   
 atom  label           x              y              z
 ---- --------   -------------  -------------  -------------
    1 P1         -3.468447E-03  -1.825546E-02  -3.818326E-03
    2 O1         -4.333155E-04   3.472362E-02  -1.110072E-03
    3 F1          3.210131E-04  -5.794805E-05  -3.872841E-05
    4 F2         -1.754519E-02  -1.831868E-02   3.672735E-03
    5 O2          2.037577E-03  -9.657378E-04  -1.677942E-03
    6 C1          4.356756E-04   5.892118E-04  -4.571079E-04
    7 C2         -7.682972E-05  -2.732130E-04   2.184915E-04
    8 H1         -1.177241E-04  -1.145464E-04   6.154518E-05
    9 H2         -2.488561E-05  -1.233953E-04   1.277580E-04
   10 H3         -1.737626E-05   9.095087E-06  -2.331191E-06
   11 H4          4.369334E-05  -5.906944E-05  -7.435859E-05
   12 H5         -5.072589E-05   4.094549E-05   3.162043E-05
   13 Li1         1.451218E-02  -8.322517E-03  -6.693916E-03
   14 O3          8.921003E-03   1.190062E-02   4.751454E-03
   15 C3          3.530276E-04   3.290118E-04   3.717895E-04
   16 C4         -4.211179E-05  -1.510939E-04  -1.192207E-04
   17 H6         -4.144504E-05  -8.229587E-05  -3.978614E-05
   18 H7         -6.643245E-05  -8.313546E-05  -7.325163E-05
   19 H8          3.882527E-05   3.648327E-05  -3.425559E-05
   20 H9         -2.968226E-06   2.673364E-05   5.212728E-05
   21 H10         1.931452E-05   1.047805E-05   7.245033E-06
 -------------   -------------  -------------  -------------
     total        4.794855E-03   8.591090E-04  -4.844530E-03
   
  end of program der1b
   
 Time(der1b)  user:     633.901  user+sys:     633.901  wallclock:       7.417
  
  start of program geopt
  
  hessian refinement step  1
  energy change:           6.4807E-04 .  (  5.0000E-05 )
  gradient maximum:        2.7847E-02 .  (  4.5000E-04 )
  gradient rms:            7.2704E-03 .  (  3.0000E-04 )
  
 Hessian refinement summary - units are hartrees, bohr, and radians:
  var coord   org geom  org grad   cur geom  cur grad  displace.   new geom
------ ----  ---------  --------  ---------  --------  ---------  ---------
    1    1    2.926848  0.016569   2.926682  0.017479   0.000583   2.927431
    2    2    1.690497 -0.005059   1.689955 -0.004537   0.001871   1.692368
    3    3    3.171647 -0.000457   3.171647 -0.000329  -0.000001   3.171646
    4    4    3.392255  0.010568   3.442053  0.016210  -0.000125   3.392130
    5    5    3.035884 -0.000370   3.035884  0.001290  -0.000001   3.035883
    6    6    2.249460 -0.005008   2.249460 -0.004939   0.000001   2.249461
    7    7    3.007162 -0.001319   3.007162 -0.001416  -0.000006   3.007156
    8    8   -1.173450 -0.000583  -1.173450 -0.000720  -0.000000  -1.173451
    9    9    4.659277 -0.007963   4.658354 -0.006681   0.003237   4.662514
   10   10    0.673444  0.006366   0.673608  0.006345  -0.000576   0.672868
   11   11    3.109459 -0.000383   3.109494  0.000933   0.001120   3.110579
   12   12    2.133367 -0.001306   2.133367 -0.001192  -0.000009   2.133358
   13   13   -3.045443  0.001899  -3.045443  0.002000  -0.000010  -3.045453
   14   14   -0.930523 -0.000049  -0.930523 -0.000021   0.000000  -0.930523
   15   15    1.688113 -0.001453   1.688113 -0.001315  -0.000010   1.688103
   16   16    1.720811  0.015959   1.717723  0.015571  -0.000959   1.719852
   17   17    2.242289 -0.000776   2.242289 -0.001647  -0.000018   2.242271
   18   18   -1.496131 -0.002439  -1.496131 -0.002927   0.000001  -1.496130
   19   19    0.777652 -0.001307   0.778029 -0.001808  -0.001295   0.776357
   20   20    1.738465 -0.027549   1.738777 -0.027847   0.009840   1.748305
   21   21    2.928345 -0.000563   2.928345 -0.000309   0.000014   2.928359
   22   22    3.292547 -0.012001   3.292941 -0.012553  -0.001303   3.291244
   23   23    3.116579 -0.008775   3.114632 -0.009462  -0.000614   3.115965
   24   24   -2.330300 -0.008461  -2.332248 -0.010229  -0.000618  -2.330918
   25   25    4.592372  0.014224   4.593525  0.013351   0.000361   4.592733
   26   26    2.404078 -0.027422   2.403893 -0.024022  -0.005812   2.398266
   27   27    3.136890 -0.016940   3.136705 -0.019047  -0.005814   3.131075
   28   28    2.714751  0.001298   2.714751  0.001113  -0.000000   2.714750
   29   29    1.874851  0.002286   1.874851  0.002603  -0.000001   1.874849
   30   30   -1.069167 -0.000797  -1.069167 -0.000939  -0.000000  -1.069167
   31   31    1.902751  0.000314   1.902751  0.000471  -0.000000   1.902751
   32   32    1.911980  0.000838   1.911980  0.001077   0.000000   1.911980
   33   33    2.856753 -0.000294   2.856753 -0.000414   0.000000   2.856753
   34   34    1.938305 -0.000412   1.938305 -0.000501  -0.000000   1.938305
   35   35    1.900847 -0.000038   1.900847  0.000015   0.000000   1.900847
   36   36    1.934001 -0.000167   1.934001 -0.000201   0.000000   1.934002
   37   37    2.070764  0.000281   2.070764  0.000363  -0.000000   2.070764
   38   38    2.072127  0.000189   2.072127  0.000221   0.000000   2.072127
   39   39    2.075191 -0.000089   2.075191 -0.000098   0.000000   2.075191
   40   40    2.076265  0.000098   2.076265  0.000121  -0.000000   2.076265
   41   41    2.075484 -0.000194   2.075484 -0.000201  -0.000000   2.075484
   42   42    2.070483 -0.000638   2.070483 -0.000652  -0.000000   2.070483
   43   43   -2.085545 -0.000169  -2.085545 -0.000207   0.000000  -2.085544
   44   44    2.116730 -0.000044   2.116730 -0.000104  -0.000000   2.116729
   45   45    4.477842 -0.006753   4.477720 -0.007011   0.048109   4.525951
   46   46    2.706060  0.000218   2.706060  0.000101   0.000002   2.706061
   47   47    1.898978  0.000904   1.898978  0.001349   0.000005   1.898983
   48   48   -1.036220  0.000967  -1.036220  0.001116   0.000001  -1.036219
   49   49    1.906799  0.000207   1.906799  0.000451   0.000000   1.906799
   50   50    1.898921 -0.000077   1.898921  0.000001  -0.000000   1.898920
   51   51    2.854789 -0.000028   2.854789  0.000090  -0.000001   2.854788
   52   52    1.933592  0.000139   1.933592  0.000159  -0.000000   1.933591
   53   53    1.932922 -0.000013   1.932922  0.000035   0.000000   1.932922
   54   54    1.907712 -0.000109   1.907712 -0.000042  -0.000000   1.907712
   55   55    2.077958  0.000135   2.077958  0.000204  -0.000000   2.077958
   56   56    2.080312 -0.000098   2.080312 -0.000074   0.000000   2.080312
   57   57    2.075543 -0.000080   2.075543 -0.000083   0.000000   2.075543
   58   58    2.076213  0.000151   2.076213  0.000161  -0.000000   2.076213
   59   59    2.075791  0.000007   2.075791  0.000053   0.000000   2.075791
   60   60    2.062452 -0.000076   2.062452 -0.000068   0.000000   2.062452
   61   61    2.113247  0.000545   2.113247  0.000622   0.000000   2.113247
   62   62   -2.086111  0.000067  -2.086111  0.000111   0.000001  -2.086110
  
  displacement maximum:    4.8109E-02 .  (  1.8000E-03 )
  displacement rms:        6.3500E-03 .  (  1.2000E-03 )
  
  predicted energy change:  -2.5723E-04
  step size:     0.05000
  new geometry: 
                                   angstroms
  atom               x                 y                 z
  P1           -0.7531017875     -1.1551984670      1.8229643486 
  O1           -1.4500190663     -2.1776966543      0.8909737371 
  F1           -1.7364295966     -1.4058799498      3.1597988771 
  F2            0.5359768966     -0.6068905655      0.7005584228 
  O2           -1.0965513376      0.3997738715      2.0351203815 
  C1           -0.6461775652      1.5343125115      1.2776515414 
  C2           -1.4108893089      2.7410224818      1.7720095221 
  H1            0.4315311270      1.6607037802      1.4304572153 
  H2           -0.8287109095      1.3590272166      0.2107314160 
  H3           -2.4901998096      2.6168723172      1.6120231581 
  H4           -1.0748454892      3.6275457657      1.2167447289 
  H5           -1.2252654050      2.9094054409      2.8413321542 
  Li1          -0.0025328217     -2.9420867215      0.2961288486 
  O3            0.3884528101     -2.1206250576      2.5116423522 
  C3            1.4757493963     -1.5904864027      3.2780123032 
  C4            2.4071028945     -2.7207884419      3.6483878082 
  H6            2.0008457394     -0.8288451715      2.6836096401 
  H7            1.0712794798     -1.1083925049      4.1812669580 
  H8            1.8791368038     -3.4845131294      4.2351629803 
  H9            2.8281367180     -3.1890812723      2.7480876880 
  H10           3.2344149927     -2.3260843314      4.2536816237 
   
  nuclear repulsion energy.......           805.479902283 hartrees
 -------------------------------------------------
   end of geometry optimization iteration  2
 -------------------------------------------------
   
  end of program geopt
   
 Time(geopt)  user:      21.510  user+sys:      21.510  wallclock:       0.482
  
  start of program onee
  
  smallest eigenvalue of S:    1.200E-05
  number of canonical orbitals.....          298
  end of program onee
   
 Time(onee)  user:      41.585  user+sys:      41.585  wallclock:       0.720
  
  start of program probe
  
  end of program probe
   
 Time(probe)  user:      34.722  user+sys:      34.722  wallclock:       0.638
  
  start of program grid
  
  end of program grid
   
 Time(grid)  user:     104.978  user+sys:     104.978  wallclock:       1.799
  
  start of program rwr
  
  end of program rwr
   
 Time(rwr)  user:    2275.198  user+sys:    2275.198  wallclock:      32.695
  
  start of program scf
  
  
  Total number of PCM cavity points =        1340
  
 Energy computed using pseudospectral method.
 Convergence Criterion:
    Energy (econv):       1.00E-05
    RMS density (dconv):  5.00E-06
  
       i  u  d  i  g                   
       t  p  i  c  r                                 RMS    maximum
       e  d  i  u  i                       energy  density   DIIS  
       r  t  s  t  d       total energy    change  change    error 
  
etot    1  N  N  2  U    -932.17850611893           1.9E-04  9.3E-04
etot    2  Y  Y  6  M    -932.17881198201  3.1E-04  2.7E-05  3.0E-04
etot    3  N  Y  2  U    -932.17882133436  9.4E-06  7.8E-06  1.4E-04
etot    4  N  Y  2  U    -932.17882556128  4.2E-06  5.2E-06  5.3E-05
etot    5  N  Y  2  U    -932.17882580431  2.4E-07  8.3E-07  8.9E-06
etot    6  N  N  2  U    -932.17882592717  1.2E-07  0.0E+00  0.0E+00
 
 
  Computing the D energy correction and its gradients...
  
  
 Energy components, in hartrees:
   (A)  Nuclear repulsion............     805.47990228258
   (E)  Total one-electron terms.....   -2889.02914602852
   (F)    Electron-nuclear...........   -3814.52304636033
   (H)    Kinetic....................     925.49390033181
   (I)  Total two-electron terms.....    1151.40100160254
   (J)    Coulomb....................    1248.68976806040
   (K)    Exchange+Correlation.......     -97.28876645786
   (L)  Electronic energy............   -1737.62814442598  (E+I)
   (M)  -V/T.........................       2.00719004394  (-(A+F+I)/H)
   (F1) PCM free energy..............      -0.03058378378
   (N0) D correction.................      -0.01341583313
   (N)  Total energy.................    -932.19224176030  (A+L+F1)
  
 Gas phase energy......................    -932.16493250029
 Solution phase energy.................    -932.19224176030
 PCM solvation energy (electrostatic)..      -0.02730926001 ( -17.14 kcal/mol)
 PCM van der Waals area (A**2).........             201.706
 PCM SASA (A**2).......................             363.103
  
  WARNING: 
  The solvation energy is computed from 
  energies at the solution phase geometry and
  at the gas phase geometry.  Because the 
  nogas=2 flag was used, the gas phase geometry
  was not optimized in this calculation; 
  instead the input geometry was assumed to be 
  the correct optimized gas phase geometry. 
  
  
 SCFE: SCF energy: DFT(wb97x-d)      -932.19224176030 hartrees   iterations:   6
  
 
 HOMO energy:    -0.38178
 LUMO energy:     0.03303
 
  Orbital energies (hartrees): 
   -77.42762   -24.78523   -24.78163   -19.30234   -19.29132   -19.23391
   -10.35600   -10.35599   -10.29332   -10.29172    -6.84383    -4.99906
    -4.99753    -4.99649    -2.10262    -1.26450    -1.23117    -1.13980
    -1.13643    -1.05894    -0.86579    -0.85500    -0.74729    -0.72254
    -0.67478    -0.63368    -0.61339    -0.58404    -0.57419    -0.55670
    -0.53988    -0.53682    -0.51045    -0.49797    -0.48938    -0.47785
    -0.47308    -0.46507    -0.46352    -0.45949    -0.44743    -0.42911
    -0.42315    -0.41279    -0.40043    -0.38701    -0.38178     0.03303
     0.06659     0.06769     0.07326     0.10565     0.11385     0.12142
     0.13136     0.13808     0.14515
 
  end of program scf
   
 Time(scf)  user:    1346.473  user+sys:    1346.473  wallclock:      13.262
  
  start of program der1a
  
  end of program der1a
   
 Time(der1a)  user:      28.520  user+sys:      28.520  wallclock:       0.528
  
  start of program rwr
  
  end of program rwr
   
 Time(rwr)  user:    2144.202  user+sys:    2144.202  wallclock:      26.330
  
  start of program der1b
  
   
  forces (hartrees/bohr) : total     
   
 atom  label           x              y              z
 ---- --------   -------------  -------------  -------------
    1 P1         -4.107956E-03  -1.790336E-02  -1.204823E-03
    2 O1         -1.269555E-04   3.396167E-02  -4.134584E-05
    3 F1         -1.732051E-03   1.333541E-03  -3.447183E-04
    4 F2         -1.301635E-02  -1.932581E-02   4.468387E-04
    5 O2         -6.664349E-04  -1.465737E-04   4.270481E-04
    6 C1         -3.748778E-05   3.632680E-04  -4.999297E-05
    7 C2         -5.321091E-06  -2.111938E-04   1.533640E-04
    8 H1         -9.817518E-05  -1.112624E-05   6.815144E-05
    9 H2         -4.227358E-05  -5.529665E-06   1.154178E-04
   10 H3         -1.619372E-05   3.933545E-06  -1.716769E-06
   11 H4          3.151798E-05  -2.238560E-05  -6.931768E-05
   12 H5         -5.422630E-05   3.650320E-05   3.350952E-05
   13 Li1         1.425999E-02  -8.582828E-03  -6.962111E-03
   14 O3          9.964674E-03   1.131750E-02   2.877717E-03
   15 C3         -2.005147E-04   1.178526E-04  -1.302074E-04
   16 C4          3.898765E-05  -8.438855E-05  -1.216669E-04
   17 H6          9.397304E-05   3.353510E-05   1.391183E-06
   18 H7         -3.665562E-05  -2.130079E-05  -2.651543E-05
   19 H8          2.539132E-05   4.742388E-05  -2.929403E-05
   20 H9         -1.176494E-05   2.574870E-05   7.287491E-05
   21 H10         4.160631E-05  -9.724795E-06   2.691181E-05
 -------------   -------------  -------------  -------------
     total        4.303784E-03   9.167621E-04  -4.758484E-03
   
  end of program der1b
   
 Time(der1b)  user:     649.913  user+sys:     649.913  wallclock:       9.788
  
  start of program geopt
  
  hessian refinement step  2
  energy change:          -2.1296E-04 .  (  5.0000E-05 )
  gradient maximum:        3.4967E-02 .  (  4.5000E-04 )
  gradient rms:            7.9640E-03 .  (  3.0000E-04 )
  
 Hessian refinement summary - units are hartrees, bohr, and radians:
  var coord   org geom  org grad   cur geom  cur grad  displace.   new geom
------ ----  ---------  --------  ---------  --------  ---------  ---------
    1    1    2.926848  0.016569   2.927431  0.016634  -0.000182   2.926666
    2    2    1.690497 -0.005059   1.692368 -0.007709  -0.000575   1.689923
    3    3    3.171647 -0.000457   3.171646 -0.001057   0.000003   3.171650
    4    4    3.392255  0.010568   3.392130  0.010398   0.000033   3.392288
    5    5    3.035884 -0.000370   3.035883 -0.000496   0.000017   3.035901
    6    6    2.249460 -0.005008   2.249461 -0.005881   0.000096   2.249556
    7    7    3.007162 -0.001319   3.007156 -0.001406   0.000092   3.007254
    8    8   -1.173450 -0.000583  -1.173451 -0.000630   0.000000  -1.173450
    9    9    4.659277 -0.007963   4.662514 -0.012064  -0.001005   4.658272
   10   10    0.673444  0.006366   0.672868  0.007341   0.000178   0.673621
   11   11    3.109459 -0.000383   3.110579  0.000092   0.049842   3.159301
   12   12    2.133367 -0.001306   2.133358 -0.000666   0.000158   2.133525
   13   13   -3.045443  0.001899  -3.045453  0.001971   0.000071  -3.045372
   14   14   -0.930523 -0.000049  -0.930523 -0.000020  -0.000001  -0.930524
   15   15    1.688113 -0.001453   1.688103 -0.000477   0.000027   1.688139
   16   16    1.720811  0.015959   1.719852  0.012204   0.000256   1.721068
   17   17    2.242289 -0.000776   2.242271 -0.000188   0.000343   2.242632
   18   18   -1.496131 -0.002439  -1.496130 -0.002736  -0.000052  -1.496183
   19   19    0.777652 -0.001307   0.776357  0.000368   0.000397   0.778049
   20   20    1.738465 -0.027549   1.748305 -0.031222  -0.002593   1.735873
   21   21    2.928345 -0.000563   2.928359 -0.000215  -0.000088   2.928257
   22   22    3.292547 -0.012001   3.291244 -0.010382   0.000390   3.292937
   23   23    3.116579 -0.008775   3.115965 -0.006488   0.000211   3.116790
   24   24   -2.330300 -0.008461  -2.330918  0.000166   0.000237  -2.330063
   25   25    4.592372  0.014224   4.592733  0.016117  -0.000102   4.592271
   26   26    2.404078 -0.027422   2.398266 -0.034967   0.001710   2.405788
   27   27    3.136890 -0.016940   3.131075 -0.021257   0.001620   3.138509
   28   28    2.714751  0.001298   2.714750  0.001315  -0.000009   2.714742
   29   29    1.874851  0.002286   1.874849  0.002292  -0.000028   1.874823
   30   30   -1.069167 -0.000797  -1.069167 -0.000844   0.000000  -1.069166
   31   31    1.902751  0.000314   1.902751  0.000320  -0.000001   1.902750
   32   32    1.911980  0.000838   1.911980  0.000820   0.000001   1.911981
   33   33    2.856753 -0.000294   2.856753 -0.000371   0.000007   2.856760
   34   34    1.938305 -0.000412   1.938305 -0.000436   0.000003   1.938308
   35   35    1.900847 -0.000038   1.900847 -0.000031   0.000002   1.900849
   36   36    1.934001 -0.000167   1.934002 -0.000183  -0.000002   1.933999
   37   37    2.070764  0.000281   2.070764  0.000306   0.000001   2.070765
   38   38    2.072127  0.000189   2.072127  0.000224  -0.000001   2.072126
   39   39    2.075191 -0.000089   2.075191 -0.000092  -0.000001   2.075190
   40   40    2.076265  0.000098   2.076265  0.000099  -0.000000   2.076264
   41   41    2.075484 -0.000194   2.075484 -0.000193   0.000002   2.075486
   42   42    2.070483 -0.000638   2.070483 -0.000703   0.000001   2.070484
   43   43   -2.085545 -0.000169  -2.085544 -0.000184  -0.000004  -2.085549
   44   44    2.116730 -0.000044   2.116729 -0.000063   0.000001   2.116731
   45   45    4.477842 -0.006753   4.525951 -0.004264   0.001190   4.479031
   46   46    2.706060  0.000218   2.706061  0.000414  -0.000030   2.706029
   47   47    1.898978  0.000904   1.898983  0.000890  -0.000081   1.898897
   48   48   -1.036220  0.000967  -1.036219  0.001019  -0.000001  -1.036221
   49   49    1.906799  0.000207   1.906799  0.000111  -0.000002   1.906797
   50   50    1.898921 -0.000077   1.898920 -0.000109   0.000001   1.898921
   51   51    2.854789 -0.000028   2.854788  0.000013   0.000011   2.854799
   52   52    1.933592  0.000139   1.933591  0.000163   0.000002   1.933594
   53   53    1.932922 -0.000013   1.932922 -0.000025  -0.000002   1.932920
   54   54    1.907712 -0.000109   1.907712 -0.000102   0.000004   1.907716
   55   55    2.077958  0.000135   2.077958  0.000079   0.000000   2.077958
   56   56    2.080312 -0.000098   2.080312 -0.000128  -0.000002   2.080311
   57   57    2.075543 -0.000080   2.075543 -0.000083  -0.000000   2.075542
   58   58    2.076213  0.000151   2.076213  0.000187   0.000002   2.076216
   59   59    2.075791  0.000007   2.075791  0.000010  -0.000001   2.075790
   60   60    2.062452 -0.000076   2.062452 -0.000036   0.000002   2.062454
   61   61    2.113247  0.000545   2.113247  0.000569  -0.000002   2.113245
   62   62   -2.086111  0.000067  -2.086110  0.000052  -0.000004  -2.086115
  
  displacement maximum:    4.9842E-02 .  (  1.8000E-03 )
  displacement rms:        6.3500E-03 .  (  1.2000E-03 )
  
  predicted energy change:   3.2974E-04
  step size:     0.05000
  new geometry: 
                                   angstroms
  atom               x                 y                 z
  P1           -0.7589079604     -1.1416525191      1.8275415495 
  O1           -1.4471318712     -2.1693992437      0.8955365308 
  F1           -1.7564303703     -1.3820269018      3.1557273757 
  F2            0.5424314956     -0.6000669839      0.7159382487 
  O2           -1.1075580207      0.4131981551      2.0320389804 
  C1           -0.6555830785      1.5462406680      1.2732937540 
  C2           -1.4262880422      2.7526838790      1.7589306672 
  H1            0.4208590790      1.6759752145      1.4321087574 
  H2           -0.8312575072      1.3667418570      0.2059235303 
  H3           -2.5043120795      2.6252074312      1.5930016831 
  H4           -1.0892258097      3.6381454049      1.2025903872 
  H5           -1.2474245353      2.9252397935      2.8287413026 
  Li1           0.0085594927     -2.9382540152      0.3243134668 
  O3            0.3999781551     -2.1294830586      2.5176066587 
  C3            1.4897521117     -1.6072562780      3.2858562182 
  C4            2.4195012261     -2.7422193947      3.6458895153 
  H6            2.0152741412     -0.8422570557      2.6961604466 
  H7            1.0879374832     -1.1311032106      4.1934357881 
  H8            1.8910964308     -3.5092877737      4.2278884506 
  H9            2.8378584716     -3.2045446817      2.7412660786 
  H10           3.2487738369     -2.3537875052      4.2525550699 
   
  nuclear repulsion energy.......           803.514570941 hartrees
 -------------------------------------------------
   end of geometry optimization iteration  3
 -------------------------------------------------
   
  end of program geopt
   
 Time(geopt)  user:      27.642  user+sys:      27.642  wallclock:       0.577
  
  start of program onee
  
  smallest eigenvalue of S:    1.223E-05
  number of canonical orbitals.....          298
  end of program onee
   
 Time(onee)  user:      41.773  user+sys:      41.773  wallclock:       0.742
  
  start of program probe
  
  end of program probe
   
 Time(probe)  user:      35.061  user+sys:      35.061  wallclock:       0.664
  
  start of program grid
  
  end of program grid
   
 Time(grid)  user:     109.528  user+sys:     109.528  wallclock:       1.952
  
  start of program rwr
  
  end of program rwr
   
 Time(rwr)  user:    3000.225  user+sys:    3000.225  wallclock:      40.640
  
  start of program scf
  
  
  Total number of PCM cavity points =        1336
  
 Energy computed using pseudospectral method.
 Convergence Criterion:
    Energy (econv):       1.00E-05
    RMS density (dconv):  5.00E-06
  
       i  u  d  i  g                   
       t  p  i  c  r                                 RMS    maximum
       e  d  i  u  i                       energy  density   DIIS  
       r  t  s  t  d       total energy    change  change    error 
  
etot    1  N  N  2  U    -932.17785073820           2.1E-04  1.5E-03
etot    2  Y  Y  6  M    -932.17830838225  4.6E-04  3.5E-05  3.4E-04
etot    3  N  Y  2  U    -932.17834004892  3.2E-05  1.2E-05  4.0E-04
etot    4  N  Y  2  U    -932.17836030348  2.0E-05  6.0E-06  4.5E-05
etot    5  N  Y  2  U    -932.17836079361  4.9E-07  1.2E-06  1.1E-05
etot    6  N  N  2  U    -932.17836078502 -8.6E-09  0.0E+00  0.0E+00
 
 
  Computing the D energy correction and its gradients...
  
  
 Energy components, in hartrees:
   (A)  Nuclear repulsion............     803.51457094131
   (E)  Total one-electron terms.....   -2885.06940320394
   (F)    Electron-nuclear...........   -3810.51797472644
   (H)    Kinetic....................     925.44857152250
   (I)  Total two-electron terms.....    1149.40658252794
   (J)    Coulomb....................    1246.68194426766
   (K)    Exchange+Correlation.......     -97.27536173972
   (L)  Electronic energy............   -1735.66282067601  (E+I)
   (M)  -V/T.........................       2.00723938468  (-(A+F+I)/H)
   (F1) PCM free energy..............      -0.03011105032
   (N0) D correction.................      -0.01337417496
   (N)  Total energy.................    -932.19173495998  (A+L+F1)
  
 Gas phase energy......................    -932.16493250029
 Solution phase energy.................    -932.19173495998
 PCM solvation energy (electrostatic)..      -0.02680245968 ( -16.82 kcal/mol)
 PCM van der Waals area (A**2).........             201.734
 PCM SASA (A**2).......................             363.490
  
  WARNING: 
  The solvation energy is computed from 
  energies at the solution phase geometry and
  at the gas phase geometry.  Because the 
  nogas=2 flag was used, the gas phase geometry
  was not optimized in this calculation; 
  instead the input geometry was assumed to be 
  the correct optimized gas phase geometry. 
  
  
 SCFE: SCF energy: DFT(wb97x-d)      -932.19173495998 hartrees   iterations:   6
  
 
 HOMO energy:    -0.38075
 LUMO energy:     0.03304
 
  Orbital energies (hartrees): 
   -77.42949   -24.78767   -24.78229   -19.30322   -19.29106   -19.23450
   -10.35631   -10.35502   -10.29312   -10.29191    -6.84534    -5.00060
    -4.99901    -4.99803    -2.10185    -1.26501    -1.23181    -1.14056
    -1.13183    -1.05941    -0.86575    -0.85353    -0.74740    -0.72087
    -0.67498    -0.63306    -0.61288    -0.58425    -0.57353    -0.55711
    -0.54014    -0.53565    -0.51126    -0.49800    -0.49017    -0.47828
    -0.47345    -0.46534    -0.46395    -0.45998    -0.44752    -0.42711
    -0.42368    -0.41297    -0.40091    -0.38770    -0.38075     0.03304
     0.06656     0.06770     0.07279     0.10309     0.11385     0.12128
     0.13120     0.13789     0.14334
 
  end of program scf
   
 Time(scf)  user:    1388.498  user+sys:    1388.498  wallclock:      13.778
  
  start of program der1a
  
  end of program der1a
   
 Time(der1a)  user:      23.451  user+sys:      23.451  wallclock:       0.436
  
  start of program rwr
  
  end of program rwr
   
 Time(rwr)  user:    1666.466  user+sys:    1666.466  wallclock:      21.560
  
  start of program der1b
  
   
  forces (hartrees/bohr) : total     
   
 atom  label           x              y              z
 ---- --------   -------------  -------------  -------------
    1 P1          3.061102E-03  -2.311102E-02   1.724485E-03
    2 O1         -2.646187E-04   3.394054E-02  -1.305991E-04
    3 F1          2.084334E-03  -6.931951E-04  -4.640672E-04
    4 F2         -1.387355E-02  -1.836995E-02   1.082702E-03
    5 O2          1.712588E-04   1.151281E-04  -2.391018E-04
    6 C1          2.679569E-04   3.794945E-04  -1.848725E-04
    7 C2         -3.521375E-05  -2.341624E-04   1.679090E-04
    8 H1         -9.217030E-05  -3.611919E-05   6.411917E-05
    9 H2         -5.519201E-05  -7.349362E-05   8.659910E-05
   10 H3         -1.048224E-05   3.988338E-07  -1.978455E-06
   11 H4          3.658936E-05  -3.440271E-05  -7.583811E-05
   12 H5         -4.832793E-05   3.300542E-05   2.935582E-05
   13 Li1         1.453272E-02  -8.696685E-03  -6.303070E-03
   14 O3         -6.712622E-04   1.714315E-02   2.208443E-04
   15 C3         -1.233950E-03   5.280544E-04  -7.032035E-04
   16 C4         -1.372877E-05  -1.191939E-04  -1.360766E-04
   17 H6          1.891367E-04   1.468885E-04   2.625300E-05
   18 H7          8.768152E-05   3.740833E-05   6.119349E-05
   19 H8          2.753894E-05   1.073112E-05  -2.350424E-05
   20 H9         -1.396617E-06  -5.747311E-06   3.486990E-05
   21 H10         7.978917E-05  -6.881129E-06   3.978767E-05
 -------------   -------------  -------------  -------------
     total        4.238216E-03   9.539460E-04  -4.724193E-03
   
  end of program der1b
   
 Time(der1b)  user:     685.733  user+sys:     685.733  wallclock:       7.796
  
  start of program geopt
  
  hessian refinement step  3
  energy change:           2.9384E-04 .  (  5.0000E-05 )
  gradient maximum:        2.5821E-02 .  (  4.5000E-04 )
  gradient rms:            7.0536E-03 .  (  3.0000E-04 )
  
 Hessian refinement summary - units are hartrees, bohr, and radians:
  var coord   org geom  org grad   cur geom  cur grad  displace.   new geom
------ ----  ---------  --------  ---------  --------  ---------  ---------
    1    1    2.926848  0.016569   2.926666  0.017407  -0.003623   2.923225
    2    2    1.690497 -0.005059   1.689923 -0.005178  -0.010411   1.680086
    3    3    3.171647 -0.000457   3.171650  0.001003   0.000005   3.171652
    4    4    3.392255  0.010568   3.392288  0.011878   0.000423   3.392678
    5    5    3.035884 -0.000370   3.035901 -0.000263   0.000008   3.035891
    6    6    2.249460 -0.005008   2.249556 -0.005148   0.000076   2.249536
    7    7    3.007162 -0.001319   3.007254 -0.001337   0.000035   3.007197
    8    8   -1.173450 -0.000583  -1.173450 -0.000600   0.000002  -1.173448
    9    9    4.659277 -0.007963   4.658272 -0.007888   0.011341   4.670618
   10   10    0.673444  0.006366   0.673621  0.006593  -0.001969   0.671475
   11   11    3.109459 -0.000383   3.159301  0.013692   0.000431   3.109890
   12   12    2.133367 -0.001306   2.133525  0.001011   0.000044   2.133411
   13   13   -3.045443  0.001899  -3.045372  0.001841   0.000087  -3.045356
   14   14   -0.930523 -0.000049  -0.930524 -0.000099  -0.000002  -0.930525
   15   15    1.688113 -0.001453   1.688139 -0.002163   0.000046   1.688159
   16   16    1.720811  0.015959   1.721068  0.015529   0.003242   1.724053
   17   17    2.242289 -0.000776   2.242632 -0.001145   0.000109   2.242398
   18   18   -1.496131 -0.002439  -1.496183 -0.002469   0.000001  -1.496130
   19   19    0.777652 -0.001307   0.778049 -0.001416   0.012380   0.790032
   20   20    1.738465 -0.027549   1.735873 -0.025821   0.003640   1.742106
   21   21    2.928345 -0.000563   2.928257 -0.000223  -0.000102   2.928244
   22   22    3.292547 -0.012001   3.292937 -0.012347   0.045261   3.337808
   23   23    3.116579 -0.008775   3.116790 -0.005984   0.002112   3.118691
   24   24   -2.330300 -0.008461  -2.330063 -0.011166   0.002156  -2.328145
   25   25    4.592372  0.014224   4.592271  0.013921  -0.001223   4.591149
   26   26    2.404078 -0.027422   2.405788 -0.024321  -0.001833   2.402245
   27   27    3.136890 -0.016940   3.138509 -0.014557  -0.001948   3.134941
   28   28    2.714751  0.001298   2.714742  0.001264  -0.000011   2.714740
   29   29    1.874851  0.002286   1.874823  0.002523  -0.000029   1.874821
   30   30   -1.069167 -0.000797  -1.069166 -0.000831   0.000003  -1.069164
   31   31    1.902751  0.000314   1.902750  0.000365   0.000000   1.902751
   32   32    1.911980  0.000838   1.911981  0.000931  -0.000001   1.911980
   33   33    2.856753 -0.000294   2.856760 -0.000338   0.000006   2.856758
   34   34    1.938305 -0.000412   1.938308 -0.000413   0.000002   1.938307
   35   35    1.900847 -0.000038   1.900849 -0.000031   0.000001   1.900848
   36   36    1.934001 -0.000167   1.933999 -0.000165  -0.000001   1.934000
   37   37    2.070764  0.000281   2.070765  0.000304  -0.000000   2.070764
   38   38    2.072127  0.000189   2.072126  0.000191  -0.000000   2.072127
   39   39    2.075191 -0.000089   2.075190 -0.000092  -0.000000   2.075191
   40   40    2.076265  0.000098   2.076264  0.000115  -0.000000   2.076264
   41   41    2.075484 -0.000194   2.075486 -0.000197   0.000001   2.075485
   42   42    2.070483 -0.000638   2.070484 -0.000660   0.000002   2.070485
   43   43   -2.085545 -0.000169  -2.085549 -0.000182  -0.000001  -2.085545
   44   44    2.116730 -0.000044   2.116731 -0.000033   0.000001   2.116730
   45   45    4.477842 -0.006753   4.479031 -0.006299  -0.001488   4.476354
   46   46    2.706060  0.000218   2.706029  0.001112  -0.000007   2.706052
   47   47    1.898978  0.000904   1.898897  0.001103  -0.000025   1.898954
   48   48   -1.036220  0.000967  -1.036221  0.000993  -0.000003  -1.036223
   49   49    1.906799  0.000207   1.906797 -0.000100  -0.000002   1.906797
   50   50    1.898921 -0.000077   1.898921 -0.000420   0.000002   1.898923
   51   51    2.854789 -0.000028   2.854799 -0.000062   0.000005   2.854794
   52   52    1.933592  0.000139   1.933594  0.000102   0.000002   1.933594
   53   53    1.932922 -0.000013   1.932920 -0.000031  -0.000002   1.932920
   54   54    1.907712 -0.000109   1.907716 -0.000131   0.000001   1.907713
   55   55    2.077958  0.000135   2.077958 -0.000034   0.000001   2.077959
   56   56    2.080312 -0.000098   2.080311 -0.000176  -0.000001   2.080311
   57   57    2.075543 -0.000080   2.075542 -0.000104  -0.000001   2.075541
   58   58    2.076213  0.000151   2.076216  0.000133   0.000002   2.076215
   59   59    2.075791  0.000007   2.075790 -0.000029  -0.000000   2.075791
   60   60    2.062452 -0.000076   2.062454 -0.000049  -0.000000   2.062452
   61   61    2.113247  0.000545   2.113245  0.000567   0.000000   2.113247
   62   62   -2.086111  0.000067  -2.086115  0.000071  -0.000005  -2.086116
  
  displacement maximum:    4.5261E-02 .  (  1.8000E-03 )
  displacement rms:        6.3500E-03 .  (  1.2000E-03 )
  
  predicted energy change:  -4.5290E-04
  step size:     0.05000
  new geometry: 
                                   angstroms
  atom               x                 y                 z
  P1           -0.7552205822     -1.1515160640      1.8287655231 
  O1           -1.4489204681     -2.1753637460      0.8995572014 
  F1           -1.7419614603     -1.3977652335      3.1639119548 
  F2            0.5367033231     -0.5986802920      0.7113992180 
  O2           -1.0997661561      0.4038295891      2.0363928145 
  C1           -0.6486697242      1.5367227715      1.2769046579 
  C2           -1.4148340629      2.7442419747      1.7670287188 
  H1            0.4287088187      1.6640478253      1.4312544760 
  H2           -0.8292753557      1.3587100029      0.2101082837 
  H3           -2.4938095595      2.6191467139      1.6055270932 
  H4           -1.0783083792      3.6295829760      1.2101721491 
  H5           -1.2310992785      2.9153272927      2.8362492673 
  Li1           0.0321455394     -2.9425309676      0.3184508801 
  O3            0.3860112588     -2.1207373882      2.5117531982 
  C3            1.4759976396     -1.5948304716      3.2772084012 
  C4            2.4062653126     -2.7278874080      3.6418636358 
  H6            2.0010573785     -0.8323088160      2.6839022687 
  H7            1.0744612662     -1.1147721399      4.1828519209 
  H8            1.8783625257     -3.4925318905      4.2274954081 
  H9            2.8243720367     -3.1940895393      2.7391162024 
  H10           3.2356818876     -2.3365009704      4.2464308065 
   
  nuclear repulsion energy.......           805.606579634 hartrees
 -------------------------------------------------
   end of geometry optimization iteration  4
 -------------------------------------------------
   
  end of program geopt
   
 Time(geopt)  user:      30.863  user+sys:      30.863  wallclock:       0.581
  
  start of program onee
  
  smallest eigenvalue of S:    1.207E-05
  number of canonical orbitals.....          298
  end of program onee
   
 Time(onee)  user:      36.385  user+sys:      36.385  wallclock:       0.468
  
  start of program probe
  
  end of program probe
   
 Time(probe)  user:      30.979  user+sys:      30.979  wallclock:       0.448
  
  start of program grid
  
  end of program grid
   
 Time(grid)  user:     120.096  user+sys:     120.096  wallclock:       1.307
  
  start of program rwr
  
  end of program rwr
   
 Time(rwr)  user:    2528.495  user+sys:    2528.495  wallclock:      35.178
  
  start of program scf
  
  
  Total number of PCM cavity points =        1340
  
 Energy computed using pseudospectral method.
 Convergence Criterion:
    Energy (econv):       1.00E-05
    RMS density (dconv):  5.00E-06
  
       i  u  d  i  g                   
       t  p  i  c  r                                 RMS    maximum
       e  d  i  u  i                       energy  density   DIIS  
       r  t  s  t  d       total energy    change  change    error 
  
etot    1  N  N  2  U    -932.17876858052           1.3E-04  1.4E-03
etot    2  Y  Y  6  M    -932.17912322089  3.5E-04  2.9E-05  3.8E-04
etot    3  N  Y  2  U    -932.17911340476 -9.8E-06  1.4E-05  3.7E-04
etot    4  N  Y  2  U    -932.17914067168  2.7E-05  5.4E-06  3.1E-05
etot    5  N  Y  2  U    -932.17914148059  8.1E-07  3.2E-06  9.7E-06
etot    6  N  N  2  U    -932.17914129646 -1.8E-07  0.0E+00  0.0E+00
 
 
  Computing the D energy correction and its gradients...
  
  
 Energy components, in hartrees:
   (A)  Nuclear repulsion............     805.60657963380
   (E)  Total one-electron terms.....   -2889.28388864597
   (F)    Electron-nuclear...........   -3814.77370419551
   (H)    Kinetic....................     925.48981554954
   (I)  Total two-electron terms.....    1151.52913239221
   (J)    Coulomb....................    1248.81730005169
   (K)    Exchange+Correlation.......     -97.28816765948
   (L)  Electronic energy............   -1737.75475625376  (E+I)
   (M)  -V/T.........................       2.00719441852  (-(A+F+I)/H)
   (F1) PCM free energy..............      -0.03096467649
   (N0) D correction.................      -0.01344184082
   (N)  Total energy.................    -932.19258313728  (A+L+F1)
  
 Gas phase energy......................    -932.16493250029
 Solution phase energy.................    -932.19258313728
 PCM solvation energy (electrostatic)..      -0.02765063698 ( -17.35 kcal/mol)
 PCM van der Waals area (A**2).........             201.642
 PCM SASA (A**2).......................             362.778
  
  WARNING: 
  The solvation energy is computed from 
  energies at the solution phase geometry and
  at the gas phase geometry.  Because the 
  nogas=2 flag was used, the gas phase geometry
  was not optimized in this calculation; 
  instead the input geometry was assumed to be 
  the correct optimized gas phase geometry. 
  
  
 SCFE: SCF energy: DFT(wb97x-d)      -932.19258313728 hartrees   iterations:   6
  
 
 HOMO energy:    -0.38242
 LUMO energy:     0.03308
 
  Orbital energies (hartrees): 
   -77.42710   -24.78553   -24.78130   -19.30186   -19.29201   -19.23346
   -10.35607   -10.35578   -10.29344   -10.29161    -6.84341    -4.99863
    -4.99711    -4.99605    -2.10428    -1.26460    -1.23111    -1.13943
    -1.13716    -1.05847    -0.86564    -0.85513    -0.74714    -0.72268
    -0.67469    -0.63386    -0.61342    -0.58367    -0.57447    -0.55635
    -0.53977    -0.53727    -0.51056    -0.49779    -0.48938    -0.47773
    -0.47291    -0.46489    -0.46356    -0.45925    -0.44734    -0.42948
    -0.42269    -0.41222    -0.39996    -0.38634    -0.38242     0.03308
     0.06654     0.06775     0.07323     0.10549     0.11382     0.12160
     0.13151     0.13820     0.14509
 
  end of program scf
   
 Time(scf)  user:    1389.594  user+sys:    1389.594  wallclock:      13.796
  
  start of program der1a
  
  end of program der1a
   
 Time(der1a)  user:      36.268  user+sys:      36.268  wallclock:       0.663
  
  start of program rwr
  
  end of program rwr
   
 Time(rwr)  user:    1764.481  user+sys:    1764.481  wallclock:      22.779
  
  start of program der1b
  
   
  forces (hartrees/bohr) : total     
   
 atom  label           x              y              z
 ---- --------   -------------  -------------  -------------
    1 P1         -4.560065E-03  -1.672680E-02  -1.569493E-03
    2 O1          1.573346E-03   3.179474E-02  -2.634050E-03
    3 F1         -8.287515E-04   1.022031E-03   3.245558E-05
    4 F2         -1.249231E-02  -1.976369E-02  -5.813036E-05
    5 O2         -6.736540E-04  -1.037132E-04   5.427235E-04
    6 C1         -7.989600E-05   4.159805E-04   5.680157E-05
    7 C2         -2.394910E-05  -2.137296E-04   1.567894E-04
    8 H1         -1.464308E-04   3.048089E-05   5.847136E-05
    9 H2         -4.844966E-05   1.249782E-05   1.230817E-04
   10 H3         -2.210974E-05   1.077024E-05   9.648337E-10
   11 H4          3.060689E-05  -1.460011E-05  -7.334917E-05
   12 H5         -5.705523E-05   3.992415E-05   3.565809E-05
   13 Li1         1.141706E-02  -6.701168E-03  -5.142635E-03
   14 O3          1.023905E-02   1.116878E-02   3.987505E-03
   15 C3          3.612245E-05   1.179931E-04   9.512550E-05
   16 C4          4.131356E-05  -8.157157E-05  -1.017378E-04
   17 H6          4.539689E-05   4.176000E-06  -3.998840E-06
   18 H7         -5.353979E-05  -5.198756E-05  -4.213098E-05
   19 H8          2.755511E-05   4.104462E-05  -3.488749E-05
   20 H9         -1.007261E-05  -8.317187E-05   8.337074E-05
   21 H10         4.834287E-05  -7.258609E-06   1.935424E-05
 -------------   -------------  -------------  -------------
     total        4.462515E-03   9.107250E-04  -4.469076E-03
   
  end of program der1b
   
 Time(der1b)  user:     701.955  user+sys:     701.955  wallclock:       7.318
  
  start of program geopt
  
  hessian refinement step  4
  energy change:          -5.5433E-04 .  (  5.0000E-05 )
  gradient maximum:        3.4945E-02 .  (  4.5000E-04 )
  gradient rms:            7.7860E-03 .  (  3.0000E-04 )
  
 Hessian refinement summary - units are hartrees, bohr, and radians:
  var coord   org geom  org grad   cur geom  cur grad  displace.   new geom
------ ----  ---------  --------  ---------  --------  ---------  ---------
    1    1    2.926848  0.016569   2.923225  0.015193   0.000434   2.927282
    2    2    1.690497 -0.005059   1.680086 -0.007545   0.001234   1.691732
    3    3    3.171647 -0.000457   3.171652 -0.000849   0.000015   3.171662
    4    4    3.392255  0.010568   3.392678  0.009893   0.000702   3.392957
    5    5    3.035884 -0.000370   3.035891 -0.000733   0.000021   3.035905
    6    6    2.249460 -0.005008   2.249536 -0.007022  -0.000437   2.249023
    7    7    3.007162 -0.001319   3.007197 -0.001081   0.000269   3.007431
    8    8   -1.173450 -0.000583  -1.173448 -0.000578   0.000001  -1.173449
    9    9    4.659277 -0.007963   4.670618 -0.010901   0.002474   4.661751
   10   10    0.673444  0.006366   0.671475  0.006643  -0.000424   0.673019
   11   11    3.109459 -0.000383   3.109890 -0.000738  -0.000056   3.109403
   12   12    2.133367 -0.001306   2.133411 -0.001375   0.000564   2.133931
   13   13   -3.045443  0.001899  -3.045356  0.002122  -0.000027  -3.045470
   14   14   -0.930523 -0.000049  -0.930525 -0.000099  -0.000006  -0.930529
   15   15    1.688113 -0.001453   1.688159 -0.001736   0.000195   1.688308
   16   16    1.720811  0.015959   1.724053  0.013549   0.007880   1.728692
   17   17    2.242289 -0.000776   2.242398  0.000464   0.001032   2.243321
   18   18   -1.496131 -0.002439  -1.496130 -0.002832  -0.000230  -1.496361
   19   19    0.777652 -0.001307   0.790032  0.000902  -0.000810   0.776842
   20   20    1.738465 -0.027549   1.742106 -0.030897  -0.001718   1.736748
   21   21    2.928345 -0.000563   2.928244 -0.000438  -0.000071   2.928274
   22   22    3.292547 -0.012001   3.337808 -0.007571  -0.000472   3.292075
   23   23    3.116579 -0.008775   3.118691 -0.005832   0.006997   3.123576
   24   24   -2.330300 -0.008461  -2.328145 -0.001985   0.006871  -2.323429
   25   25    4.592372  0.014224   4.591149  0.016217   0.048236   4.640609
   26   26    2.404078 -0.027422   2.402245 -0.034945  -0.000806   2.403272
   27   27    3.136890 -0.016940   3.134941 -0.019585   0.000096   3.136986
   28   28    2.714751  0.001298   2.714740  0.001355   0.000095   2.714846
   29   29    1.874851  0.002286   1.874821  0.002591   0.000247   1.875098
   30   30   -1.069167 -0.000797  -1.069164 -0.000777   0.000001  -1.069166
   31   31    1.902751  0.000314   1.902751  0.000236  -0.000001   1.902750
   32   32    1.911980  0.000838   1.911980  0.000764   0.000004   1.911984
   33   33    2.856753 -0.000294   2.856758 -0.000428  -0.000030   2.856722
   34   34    1.938305 -0.000412   1.938307 -0.000431   0.000007   1.938312
   35   35    1.900847 -0.000038   1.900848 -0.000090  -0.000011   1.900836
   36   36    1.934001 -0.000167   1.934000 -0.000210  -0.000008   1.933994
   37   37    2.070764  0.000281   2.070764  0.000360   0.000005   2.070769
   38   38    2.072127  0.000189   2.072127  0.000232  -0.000000   2.072127
   39   39    2.075191 -0.000089   2.075191 -0.000119  -0.000008   2.075183
   40   40    2.076265  0.000098   2.076264  0.000104   0.000004   2.076269
   41   41    2.075484 -0.000194   2.075485 -0.000194   0.000002   2.075485
   42   42    2.070483 -0.000638   2.070485 -0.000737  -0.000005   2.070478
[...]
       t  p  i  c  r                                 RMS    maximum
       e  d  i  u  i                       energy  density   DIIS  
       r  t  s  t  d       total energy    change  change    error 
  
etot    1  N  N  2  U    -932.20232443685           1.0E-04  1.4E-03
etot    2  Y  Y  6  M    -932.20268682998  3.6E-04  1.8E-05  1.4E-04
etot    3  N  Y  2  U    -932.20270562588  1.9E-05  8.2E-06  4.5E-05
etot    4  N  Y  2  U    -932.20270600261  3.8E-07  3.3E-06  4.8E-05
etot    5  N  N  2  U    -932.20270659677  5.9E-07  0.0E+00  0.0E+00
 
 
  Computing the D energy correction and its gradients...
  
  
 Energy components, in hartrees:
   (A)  Nuclear repulsion............     803.39667533658
   (E)  Total one-electron terms.....   -2884.97285077188
   (F)    Electron-nuclear...........   -3810.50256560118
   (H)    Kinetic....................     925.52971482930
   (I)  Total two-electron terms.....    1149.40226165889
   (J)    Coulomb....................    1246.70742462374
   (K)    Exchange+Correlation.......     -97.30516296485
   (L)  Electronic energy............   -1735.57058911299  (E+I)
   (M)  -V/T.........................       2.00717880673  (-(A+F+I)/H)
   (F1) PCM free energy..............      -0.02879282036
   (N0) D correction.................      -0.01333056466
   (N)  Total energy.................    -932.21603716142  (A+L+F1)
  
 Gas phase energy......................    -932.16493250029
 Solution phase energy.................    -932.21603716142
 PCM solvation energy (electrostatic)..      -0.05110466113 ( -32.07 kcal/mol)
 PCM van der Waals area (A**2).........             199.011
 PCM SASA (A**2).......................             360.475
  
  WARNING: 
  The solvation energy is computed from 
  energies at the solution phase geometry and
  at the gas phase geometry.  Because the 
  nogas=2 flag was used, the gas phase geometry
  was not optimized in this calculation; 
  instead the input geometry was assumed to be 
  the correct optimized gas phase geometry. 
  
  
 SCFE: SCF energy: DFT(wb97x-d)      -932.21603716142 hartrees   iterations:   5
  
 
 HOMO energy:    -0.38502
 LUMO energy:     0.03254
 
  Orbital energies (hartrees): 
   -77.42334   -24.80876   -24.74757   -19.29969   -19.29760   -19.24478
   -10.36043   -10.35908   -10.29260   -10.29225    -6.84265    -4.99801
    -4.99565    -4.99513    -2.08238    -1.28504    -1.19651    -1.14784
    -1.13979    -1.07284    -0.87283    -0.85497    -0.75522    -0.72168
    -0.67023    -0.63435    -0.61805    -0.58877    -0.56874    -0.56647
    -0.54311    -0.52360    -0.50729    -0.50690    -0.48393    -0.47828
    -0.47736    -0.47115    -0.46672    -0.46231    -0.44045    -0.43336
    -0.42089    -0.40958    -0.40639    -0.39589    -0.38502     0.03254
     0.06641     0.06705     0.07441     0.11109     0.11771     0.12362
     0.13189     0.13818     0.15585
 
  end of program scf
   
 Time(scf)  user:    1159.510  user+sys:    1159.510  wallclock:      11.351
  
  start of program der1a
  
  end of program der1a
   
 Time(der1a)  user:      36.058  user+sys:      36.058  wallclock:       0.590
  
  start of program rwr
  
  end of program rwr
   
 Time(rwr)  user:    2073.639  user+sys:    2073.639  wallclock:      26.928
  
  start of program der1b
  
   
  forces (hartrees/bohr) : total     
   
 atom  label           x              y              z
 ---- --------   -------------  -------------  -------------
    1 P1          1.972936E-03   1.880648E-03  -4.812057E-04
    2 O1         -8.279120E-04  -4.383162E-04   4.458407E-05
    3 F1         -2.636555E-04  -1.015722E-04   1.153794E-04
    4 F2         -3.540975E-05   1.856648E-05   3.011014E-04
    5 O2         -1.006035E-04  -1.496010E-04  -9.955381E-05
    6 C1          1.731171E-04   1.768440E-05   2.469381E-04
    7 C2         -1.302116E-04   1.524195E-04  -1.505523E-04
    8 H1          3.860630E-05  -2.237236E-05  -3.588662E-05
    9 H2          4.368576E-05   2.764104E-05   8.511789E-05
   10 H3          5.427014E-05  -1.626032E-05   6.697722E-05
   11 H4         -3.976424E-05   4.733863E-05   2.333737E-05
   12 H5         -1.568955E-05  -2.312054E-05   1.328471E-05
   13 Li1        -1.257554E-04  -2.601368E-04  -3.998406E-04
   14 O3         -6.698180E-04  -2.482240E-03   1.083096E-03
   15 C3          5.748997E-04   1.612397E-03  -7.309605E-04
   16 C4         -3.016421E-05   4.780348E-04   1.856876E-04
   17 H6         -4.403951E-04  -6.414013E-04   3.566354E-04
   18 H7          3.095175E-05  -3.313348E-05   1.154718E-04
   19 H8         -3.019949E-05  -1.372229E-05  -6.888086E-05
   20 H9         -9.530083E-06   7.137446E-05   5.298991E-05
   21 H10        -3.403384E-05  -1.624568E-05  -4.003718E-05
 -------------   -------------  -------------  -------------
     total        1.353241E-04   1.079821E-04   6.836833E-04
   
  end of program der1b
   
 Time(der1b)  user:     643.308  user+sys:     643.308  wallclock:       7.132
  
  start of program geopt
  
 ----------------------------------------------------------------------------
  Geometry optimization step  299
  Total energy:      -932.21603716142 hartrees
 ----------------------------------------------------------------------------
  
  TS search will follow eigenvector   1 on this iteration
  
  Selected vector:  eigenvalue    -3.22419E-03

  1)  P1-O3-C3-H6( 14) -0.63030
      P1-O3-C3-C4( 13) -0.57432
      O1-P1-O3-C3( 21) -0.37221
  
  
  Level shifts adjusted to satisfy step-size constraints
   Step size:    0.0750455
   Cos(theta):   0.7857354
   Final level shift:  -1.9414674E-02
  
  energy change:          -1.0882E-04 .  (  5.0000E-05 )
  gradient maximum:        1.3496E-03 .  (  4.5000E-04 )
  gradient rms:            3.2647E-04 .  (  3.0000E-04 )
  displacement maximum:    6.2519E-02 .  (  1.8000E-03 )
  displacement rms:        9.5308E-03 .  (  1.2000E-03 )
  
  predicted energy change:  -7.0161E-05
  step size:     0.07505
  trust radius:  0.07500
  
  molecular structure not yet converged...
  
  center of mass moved by:
     x:    -9.3201E-03     y:    -2.9842E-03     z:     9.0669E-03
  
  new geometry: 
                                   angstroms
  atom               x                 y                 z
  P1           -0.6726129884     -1.1115672426      2.0929213635 
  O1           -1.0240633391     -1.9744298706      0.8970970590 
  F1           -1.8208800083     -1.5902708190      3.1595242283 
  F2            0.8121628553     -0.3954617052      0.9251570456 
  O2           -1.1492205535      0.4041725909      2.2321127224 
  C1           -1.0784590282      1.4297485945      1.2321710296 
  C2           -2.1235443248      2.4696722388      1.5632571479 
  H1           -0.0692051806      1.8561619013      1.2353829972 
  H2           -1.2667641692      0.9913081581      0.2430224802 
  H3           -3.1314177426      2.0341820966      1.5389811332 
  H4           -2.0725323469      3.2759137778      0.8186062168 
  H5           -1.9443324452      2.9014336825      2.5569583466 
  Li1           0.2446889572     -1.4592306446     -0.3905042075 
  O3            0.4940153661     -1.5015025594      3.1085789445 
  C3            1.7316840211     -2.1384267871      2.7644600941 
  C4            2.0039414866     -3.2394428950      3.7626873809 
  H6            1.6759624090     -2.5414752635      1.7457732029 
  H7            2.5168821842     -1.3720324777      2.7811127042 
  H8            2.0484154411     -2.8398188194      4.7847428158 
  H9            1.2241649783     -4.0112799713      3.7145838780 
  H10           2.9718943577     -3.7038574004      3.5282503134 
   
  nuclear repulsion energy.......           803.496251834 hartrees
 -------------------------------------------------
   end of geometry optimization iteration  299
 -------------------------------------------------
   
  end of program geopt
   
 Time(geopt)  user:      34.899  user+sys:      34.899  wallclock:       0.693
  
  start of program onee
  
  smallest eigenvalue of S:    1.503E-05
  number of canonical orbitals.....          299
  end of program onee
   
 Time(onee)  user:      43.493  user+sys:      43.493  wallclock:       0.629
  
  start of program probe
  
  end of program probe
   
 Time(probe)  user:      32.440  user+sys:      32.440  wallclock:       0.590
  
  start of program grid
  
  end of program grid
   
 Time(grid)  user:     105.935  user+sys:     105.935  wallclock:       1.794
  
  start of program rwr
  
  end of program rwr
   
 Time(rwr)  user:    3692.122  user+sys:    3692.122  wallclock:      46.558
  
  start of program scf
  
  
  Total number of PCM cavity points =        1331
  
 Energy computed using pseudospectral method.
 Convergence Criterion:
    Energy (econv):       1.00E-05
    RMS density (dconv):  5.00E-06
  
       i  u  d  i  g                   
       t  p  i  c  r                                 RMS    maximum
       e  d  i  u  i                       energy  density   DIIS  
       r  t  s  t  d       total energy    change  change    error 
  
etot    1  N  N  2  U    -932.20071640288           2.1E-04  3.7E-03
etot    2  Y  Y  6  M    -932.20259341414  1.9E-03  3.8E-05  3.2E-04
etot    3  N  Y  2  U    -932.20266874752  7.5E-05  1.3E-05  1.2E-04
etot    4  N  Y  2  U    -932.20267333785  4.6E-06  4.4E-06  1.2E-04
etot    5  N  N  2  U    -932.20267555097  2.2E-06  0.0E+00  0.0E+00
 
 
  Computing the D energy correction and its gradients...
  
  
 Energy components, in hartrees:
   (A)  Nuclear repulsion............     803.49625183448
   (E)  Total one-electron terms.....   -2885.15682696974
   (F)    Electron-nuclear...........   -3810.69338923040
   (H)    Kinetic....................     925.53656226066
   (I)  Total two-electron terms.....    1149.48674371358
   (J)    Coulomb....................    1246.79376000574
   (K)    Exchange+Correlation.......     -97.30701629216
   (L)  Electronic energy............   -1735.67008325616  (E+I)
   (M)  -V/T.........................       2.00717126630  (-(A+F+I)/H)
   (F1) PCM free energy..............      -0.02884412930
   (N0) D correction.................      -0.01330830716
   (N)  Total energy.................    -932.21598385814  (A+L+F1)
  
 Gas phase energy......................    -932.16493250029
 Solution phase energy.................    -932.21598385814
 PCM solvation energy (electrostatic)..      -0.05105135784 ( -32.04 kcal/mol)
 PCM van der Waals area (A**2).........             199.053
 PCM SASA (A**2).......................             361.131
  
  WARNING: 
  The solvation energy is computed from 
  energies at the solution phase geometry and
  at the gas phase geometry.  Because the 
  nogas=2 flag was used, the gas phase geometry
  was not optimized in this calculation; 
  instead the input geometry was assumed to be 
  the correct optimized gas phase geometry. 
  
  
 SCFE: SCF energy: DFT(wb97x-d)      -932.21598385814 hartrees   iterations:   5
  
 
 HOMO energy:    -0.38457
 LUMO energy:     0.03257
 
  Orbital energies (hartrees): 
   -77.42344   -24.80792   -24.74924   -19.29935   -19.29780   -19.24453
   -10.36016   -10.35913   -10.29237   -10.29224    -6.84266    -4.99805
    -4.99568    -4.99512    -2.08244    -1.28469    -1.19747    -1.14833
    -1.14018    -1.07250    -0.87300    -0.85514    -0.75543    -0.72227
    -0.67004    -0.63462    -0.61765    -0.58941    -0.56888    -0.56605
    -0.54342    -0.52377    -0.50735    -0.50618    -0.48360    -0.47832
    -0.47759    -0.47107    -0.46655    -0.46297    -0.44160    -0.43361
    -0.42066    -0.40899    -0.40733    -0.39625    -0.38457     0.03257
     0.06644     0.06703     0.07453     0.11133     0.11815     0.12401
     0.13214     0.13792     0.15585
 
  end of program scf
   
 Time(scf)  user:    1169.425  user+sys:    1169.425  wallclock:      11.392
  
  start of program der1a
  
  end of program der1a
   
 Time(der1a)  user:      37.965  user+sys:      37.965  wallclock:       0.712
  
  start of program rwr
  
  end of program rwr
   
 Time(rwr)  user:    1960.146  user+sys:    1960.146  wallclock:      24.863
  
  start of program der1b
  
   
  forces (hartrees/bohr) : total     
   
 atom  label           x              y              z
 ---- --------   -------------  -------------  -------------
    1 P1          1.277813E-03   8.895044E-04  -4.318069E-04
    2 O1          2.574330E-04   4.100478E-04  -2.372525E-04
    3 F1         -5.543849E-04  -3.086504E-04   6.595604E-04
    4 F2         -8.892428E-04   2.376820E-04   1.021016E-03
    5 O2          3.808829E-04  -3.415121E-04  -7.500396E-05
    6 C1          3.626802E-05   2.428874E-06   2.811505E-04
    7 C2         -1.140052E-04   4.102336E-04  -5.522546E-04
    8 H1          8.273344E-05   1.800155E-04  -1.790796E-05
    9 H2          5.512365E-06  -1.280960E-04  -3.002577E-06
   10 H3          1.299437E-04   2.401433E-05   1.445976E-04
   11 H4         -6.071289E-06   1.290213E-04   1.062024E-04
   12 H5          9.790044E-05  -2.073802E-05   3.954341E-05
   13 Li1        -2.126427E-04  -4.513486E-04  -8.446966E-04
   14 O3         -1.469177E-03  -1.203446E-03   8.088162E-04
   15 C3          3.448294E-04   1.082702E-03  -9.023344E-04
   16 C4          6.272315E-04   4.701030E-05   2.990096E-04
   17 H6         -2.486777E-04  -5.211424E-04   3.362954E-04
   18 H7          1.625671E-04  -1.565952E-04   3.124022E-05
   19 H8          2.605268E-05   1.061125E-04  -8.215612E-05
   20 H9          1.992762E-05   1.107123E-04   6.234915E-05
   21 H10         6.306236E-05  -1.111569E-04   8.286836E-05
 -------------   -------------  -------------  -------------
     total        1.795589E-05   3.868002E-04   7.262336E-04
   
  end of program der1b
   
 Time(der1b)  user:     665.474  user+sys:     665.474  wallclock:       7.134
  
  start of program geopt
  
 ----------------------------------------------------------------------------
  Geometry optimization step  300
  Total energy:      -932.21598385814 hartrees
 ----------------------------------------------------------------------------
  
  TS search will follow eigenvector   1 on this iteration
  
  Selected vector:  eigenvalue    -2.87795E-03

  1)  P1-O3-C3-H6( 14)  0.61483
      P1-O3-C3-C4( 13)  0.55635
  
  
  Level shifts adjusted to satisfy step-size constraints
   Step size:    0.0378481
   Cos(theta):   0.6005772
   Final level shift:  -5.1706897E-02
  
  energy change:           5.3303E-05 .  (  5.0000E-05 )
  gradient maximum:        1.7587E-03 .  (  4.5000E-04 )
  gradient rms:            5.9181E-04 .  (  3.0000E-04 )
  displacement maximum:    1.5596E-02 .  (  1.8000E-03 )
  displacement rms:        4.8067E-03 .  (  1.2000E-03 )
  
  predicted energy change:   2.0413E-05
  step size:     0.03785
  trust radius:  0.03750
  
  stopping optimization: maximum number of iterations reached
  
  
 ERROR 7019: fatal error
  
  geometry optimization failed to converge


 ----------------------------------------------------------------------
 Jaguar cannot recover from this error and will now abort. 
 For technical support please contact the Schrodinger Support Center at
 http://www.schrodinger.com/supportcenter/ or help@schrodinger.com
 ----------------------------------------------------------------------



 Total cpu seconds     user: 2193990.731   user+sys: 2193990.731

  
Date:          Fri 25 Jul 2025 03:55:57
SCHRODINGER:   /projects/silimorphous/ohvidsten/software/schrodinger-2025-1
uname -a:      Linux c12-16 4.18.0-553.33.1.el8_10.x86_64 #1 SMP Thu Dec 19 14:28:01 UTC 2024 x86_64 x86_64 x86_64 GNU/Linux
FQDN:          c12-16
Main memory:   257249 MB
Free disk:     7214823 MB
Host ID:       37e41a47c56563b2b6544e0ce8c6e659217ccced41a54f7ae35b2ab324eee196
Machine name:  c12-16
OS:            Rocky Linux 8.10 (Green Obsidian)
CPU:           AMD EPYC 7532 32-Core Processor
Processors:    128
CPU Features:  aes: True
CPU Features:  amx_bf16: False
CPU Features:  amx_int8: False
CPU Features:  amx_tile: False
CPU Features:  avx: True
CPU Features:  avx2: True
CPU Features:  avx512_4fmaps: False
CPU Features:  avx512_4vbmi2: False
CPU Features:  avx512_4vnniw: False
CPU Features:  avx512_bf16: False
CPU Features:  avx512_second_fma: False
CPU Features:  avx512_vp2intersect: False
CPU Features:  avx512bitalg: False
CPU Features:  avx512bw: False
CPU Features:  avx512cd: False
CPU Features:  avx512dq: False
CPU Features:  avx512er: False
CPU Features:  avx512f: False
CPU Features:  avx512ifma: False
CPU Features:  avx512pf: False
CPU Features:  avx512vbmi: False
CPU Features:  avx512vbmi2: False
CPU Features:  avx512vl: False
CPU Features:  avx512vnni: False
CPU Features:  avx512vpopcntdq: False
CPU Features:  bmi1: True
CPU Features:  bmi2: True
CPU Features:  clflushopt: True
CPU Features:  clfsh: True
CPU Features:  clwb: True
CPU Features:  cx16: True
CPU Features:  cx8: True
CPU Features:  dca: False
CPU Features:  erms: False
CPU Features:  f16c: True
CPU Features:  fma3: True
CPU Features:  fma4: False
CPU Features:  fpu: True
CPU Features:  hle: False
CPU Features:  mmx: True
CPU Features:  movbe: True
CPU Features:  pclmulqdq: True
CPU Features:  popcnt: True
CPU Features:  rdrnd: True
CPU Features:  rdseed: True
CPU Features:  rtm: False
CPU Features:  sgx: False
CPU Features:  sha: True
CPU Features:  smx: False
CPU Features:  ss: False
CPU Features:  sse: True
CPU Features:  sse2: True
CPU Features:  sse3: True
CPU Features:  sse4_1: True
CPU Features:  sse4_2: True
CPU Features:  sse4a: True
CPU Features:  ssse3: True
CPU Features:  tsc: True
CPU Features:  vaes: False
CPU Features:  vpclmulqdq: False
Memory:        269745459 kB
Swap:          34359734 kB
kernel:        4.18.0-553.33.1.el8_10.x86_64
glibc:         2.28.
Product:       bioluminate-v58129-Linux-x86_64 ( bioluminate-src:89de476c545ec68164fa0b0fb32b460b5fcb69f1 )
Product:       canvas-v63129-Linux-x86_64 ( canvas-src:9ecb097b0a6f1066a78e0ef176c0c7472e43b13b )
Product:       combiglide-v76129-Linux-x86_64 ( vcs-src:7b457087188d2c42d765427034a5c5c00ceea03a )
Product:       desmond-v81129-Linux-x86_64 ( desmond-gpu-src:473620cf01e8a222539f5671040d8eb06a482a17 )
Product:       epik-v71129-Linux-x86_64 ( epik-src:936c8448ea6a144b582fb6caf40dcf5b94dc455e )
Product:       ffld-v57129-Linux-x86_64 ( ffld-src:077276ddf20eaa8ae19743a0c6a5e1928346fdf6 )
Product:       glide-v106129-Linux-x86_64 ( glide-src:21ad12d3bcf0ac10c99175595877b0537416514a )
Product:       impact-v106129-Linux-x86_64 ( impact-src:57f312a7593bc8594489edfe801fa1d487610b75 )
Product:       jaguar-v127129-Linux-x86_64 ( jaguar-src:1622aa6a71ecb19aeb2b6cffdd90ec35e76718b0 )
Product:       knime-v69129-Linux-x86_64 ( knime-src:8c9d43c26ea5b094c0d4defc9747b456efb49b93 )
Product:       macromodel-v147129-Linux-x86_64 ( macromodel-src:ef7960c4bfa5816ad1dc7dcdcc09ed211493fc25 )
Product:       maestro-v143129-Linux-x86_64 ( )
Product:       mmshare-v69129-Linux-x86_64 ( DeepAutoQSAR:f0f227621dceea4828797d98ac312a98f548832d
                                             ligand_ml:24f00894783cd20cf98aaa22f53817fd0bb2a872
                                             mmshare:b39c0a02be8661371640b61e061a8bca02d40831
                                             pharma-src:970e09c0ba243834033469d28bc18523f8bce0d1
                                             torchSANI:bc81c053607c42147c502a3f958bc1081cdf2af0 )
Product:       psp-v79129-Linux-x86_64 ( plop:f5eeebe301f28ce2ac61c8f03790e421479a3009
                                         psp-src:c8ac7e63c30f9a5815e1be95d95fe2b0b24567f5 )
Product:       qikprop-v83129-Linux-x86_64 ( qikprop-src:f581274585f6c2f6fb091f02b57fa884e522719a )
Product:       scisol-v57129-Linux-x86_64 ( scisol-src:64c5500103e785994f89244412e74279ab52b6a7 )
Product:       watermap-v62129-Linux-x86_64 ( watermap-src:2c30857400aa86a0086b5a9ad91b86f7325df07b )
Build Start Time: 2025-01-29 04:46 UTC
Supports SLM:  True
SLM-enabled:   True